
                                 *****************
                                 * O   R   C   A *
                                 *****************

                                            #,                                       
                                            ###                                      
                                            ####                                     
                                            #####                                    
                                            ######                                   
                                           ########,                                 
                                     ,,################,,,,,                         
                               ,,#################################,,                 
                          ,,##########################################,,             
                       ,#########################################, ''#####,          
                    ,#############################################,,   '####,        
                  ,##################################################,,,,####,       
                ,###########''''           ''''###############################       
              ,#####''   ,,,,##########,,,,          '''####'''          '####       
            ,##' ,,,,###########################,,,                        '##       
           ' ,,###''''                  '''############,,,                           
         ,,##''                                '''############,,,,        ,,,,,,###''
      ,#''                                            '''#######################'''  
     '                                                          ''''####''''         
             ,#######,   #######,   ,#######,      ##                                
            ,#'     '#,  ##    ##  ,#'     '#,    #''#        ,####,   ,####,        
            ##       ##  ##   ,#'  ##            #'  '#       #'       #'  '#        
            ##       ##  #######   ##           ,######,      #####,   #    #        
            '#,     ,#'  ##    ##  '#,     ,#' ,#      #,     #,   #   #,  ,#        
             '#######'   ##     ##  '#######'  #'      '#     '####' # '####'        



                #########################################################
                #                        -***-                          #
                #          Department of theory and spectroscopy        #
                #                                                       #
                #                      Frank Neese                      #
                #                                                       #
                #     Directorship, Architecture, Infrastructure        #
                #                    SHARK, DRIVERS                     #
                #        Core code/Algorithms in most modules           #
                #                                                       #
                #        Max Planck Institute fuer Kohlenforschung      #
                #                Kaiser Wilhelm Platz 1                 #
                #                 D-45470 Muelheim/Ruhr                 #
                #                      Germany                          #
                #                                                       #
                #                  All rights reserved                  #
                #                        -***-                          #
                #########################################################


                         Program Version 6.0.1  -  RELEASE   -


 With contributions from (in alphabetic order):
[Max-Planck-Institut fuer Kohlenforschung]                               
  Daniel Aravena         : Magnetic Suceptibility                        
  Michael Atanasov       : Ab Initio Ligand Field Theory (pilot matlab implementation)
  Alexander A. Auer      : GIAO ZORA, VPT2 properties, NMR spectrum      
  Ute Becker             : All parallelization in ORCA, NUMFREQ, NUMCALC 
  Giovanni Bistoni       : ED, misc. LED, open-shell LED, HFLD           
  Martin Brehm           : Molecular dynamics                            
  Dmytro Bykov           : pre 5.0 version of the SCF Hessian            
  Marcos Casanova-Páez   : Triplet and SCS-CIS(D). UHF-(DLPNO)-IP/EA/STEOM-CCSD. UHF-CVS-IP/STEOM-CCSD   
  Vijay G. Chilkuri      : MRCI spin determinant printing, contributions to CSF-ICE 
  Pauline Colinet        : FMM embedding                                 
  Dipayan Datta          : RHF DLPNO-CCSD density                        
  Achintya Kumar Dutta   : EOM-CC, STEOM-CC                              
  Nicolas Foglia         : Exact transition moments, OPA infrastructure, MCD improvements    
  Dmitry Ganyushin       : Spin-Orbit,Spin-Spin,Magnetic field MRCI      
  Miquel Garcia-Rates    : C-PCM and meta-GGA Hessian, CCSD/C-PCM, Gaussian charge scheme 
  Tiago L. C. Gouveia    : GS-ROHF, GS-ROCIS                             
  Yang Guo               : DLPNO-NEVPT2, F12-NEVPT2, CIM, IAO-localization        
  Andreas Hansen         : Spin unrestricted coupled pair/coupled cluster methods 
  Ingolf Harden          : AUTO-CI MPn and infrastructure                
  Benjamin Helmich-Paris : MC-RPA, TRAH-(SCF,CASSCF), AVAS, COSX integrals, SCF dyn. polar. 
  Lee Huntington         : MR-EOM, pCC                                   
  Robert Izsak           : Overlap fitted RIJCOSX, COSX-SCS-MP3, EOM     
  Riya Kayal             : Wick's Theorem for AUTO-CI, AUTO-CI UHF-CCSDT 
  Emily Kempfer          : AUTO-CI, RHF CISDT and CCSDT                  
  Christian Kollmar      : KDIIS, OOCD, Brueckner-CCSD(T), CCSD density, CASPT2, CASPT2-K, improved NEVPT2 
  Axel Koslowski         : Symmetry handling                             
  Simone Kossmann        : meta-GGA functionals, TD-DFT gradient, OOMP2, (MP2 Hessian; deprecated post 5.0) 
  Lucas Lang             : DCDCAS                                        
  Marvin Lechner         : AUTO-CI (C++ implementation), FIC-MRCC        
  Spencer Leger          : CASSCF response                               
  Dagmar Lenk            : GEPOL surface, SMD, ORCA-2-JSON               
  Dimitrios Liakos       : Extrapolation schemes; Compound Job, initial MDCI parallelization 
  Dimitrios Manganas     : Further ROCIS development; embedding schemes. LFT, Crystal Embedding 
  Dimitrios Pantazis     : SARC Basis sets                               
  Anastasios Papadopoulos: AUTO-CI, single reference methods and gradients 
  Taras Petrenko         : pre 6.0 DFT Hessian and TD-DFT gradient, (ASA, deprecated), ECA, 1-Electron XAS/XES, NRVS 
  Peter Pinski           : DLPNO-MP2, DLPNO-MP2 Gradient                 
  Christoph Reimann      : Effective Core Potentials                     
  Marius Retegan         : Local ZFS, SOC                                
  Christoph Riplinger    : Optimizer, TS searches, QM/MM, DLPNO-CCSD(T), (RO)-DLPNO pert. Triples 
  Michael Roemelt        : Original ROCIS implementation                 
  Masaaki Saitow         : Open-shell DLPNO-CCSD energy and density      
  Barbara Sandhoefer     : DKH picture change effects                    
  Kantharuban Sivalingam : CASSCF convergence/infrastructure, NEVPT2 and variants, FIC-MRCI 
  Bernardo de Souza      : ESD, SOC TD-DFT                               
  Georgi L. Stoychev     : AutoAux, RI-MP2 NMR, DLPNO-MP2 response, X2C  
  Van Anh Tran           : RI-MP2 g-tensors                              
  Willem Van den Heuvel  : Paramagnetic NMR                              
  Zikuan Wang            : NOTCH, Electric field optimization            
  Frank Wennmohs         : Technical directorship and infrastructure     
  Hang Xu                : AUTO-CI-Response properties                   
                                                                         
[FACCTs GmbH]                                                            
  Markus Bursch, Miquel Garcia-Rates, Christoph Riplinger, Bernardo de Souza, Georgi L. Stoychev 
                                                                 
  APM, Basis sets (HGBS, AHGBS, def-TZVP (Ac-Lr), def2-XVPD (La-Lu)), CI-OPT, improved COSX, DLPNO-Multilevel,           
  DOCKER, DRACO, updates on ESD, GOAT, IRC, LR-CPCM, MBIS, meta-GGA TD-DFT gradient, ML-optimized integration grids, 
  MM, NACMEs, nearIR, NEB, NEB-TS, NL-DFT gradient (VV10), 2- and 3-layer-ONIOM, interface openCOSMO-RS, QMMM,   
  Crystal-QMMM, SF, symmetry and pop. for TD-DFT, r2SCAN hybrids, SOLVATOR                                   
                                                                         
[Other institutions]                                                     
  V. Asgeirsson          : NEB                                           
  Christoph Bannwarth    : sTDA-DFT, sTD-DFT, PBEh-3c, B97-3c, D3        
  Sebastian Ehlert       : rSCAN, r2SCAN, r2SCAN-3c, D4, dhf basis sets  
  Marvin Friede          : D4 for Fr, Ra, Ac-Lr                          
  Lars Goerigk           : TD-DFT with DH, B97 family of functionals     
  Stefan Grimme          : VdW corrections, initial TS optimization, DFT functionals, gCP, sTDA/sTD-DF 
  Waldemar Hujo          : DFT-NL                                        
  H. Jonsson             : NEB                                           
  Holger Kruse           : gCP                                           
  Marcel Mueller         : wB97X-3c, vDZP basis set                      
  Hagen Neugebauer       : wr2SCAN                                       
  Tobias Risthaus        : range-separated hybrid DFT                    
  Lukas Wittmann         : regularized MP2, r2SCAN double-hybrids, wr2SCAN        
                                                                         
We gratefully acknowledge several colleagues who have allowed us to      
interface, adapt or use parts of their codes:                            
  Ed Valeev, F. Pavosevic, A. Kumar             : LibInt (2-el integral package), F12 methods 
  Garnet Chan, S. Sharma, J. Yang, R. Olivares  : DMRG                   
  Ulf Ekstrom                                   : XCFun DFT Library      
  Mihaly Kallay                                 : mrcc  (arbitrary order and MRCC methods)
  Frank Weinhold                                : gennbo (NPA and NBO analysis)           
  Simon Mueller                                 : openCOSMO-RS                            
  Christopher J. Cramer and Donald G. Truhlar   : smd solvation model                     
  S Lehtola, MJT Oliveira, MAL Marques          : LibXC Library                           
  Liviu Ungur et al                             : ANISO software                          


 Your calculation uses the libint2 library for the computation of 2-el integrals
 For citations please refer to: http://libint.valeyev.net

 Your ORCA version has been built with support for libXC version: 6.2.2
 For citations please refer to: https://libxc.gitlab.io

 This ORCA versions uses:
   CBLAS   interface :  Fast vector & matrix operations
   LAPACKE interface :  Fast linear algebra routines
   Shared memory     :  Shared parallel matrices


XCFun DFT library Copyright 2009-2010 Ulf Ekstrom and contributors.
See http://admol.org/xcfun for more information.
This is free software; see the source code for copying conditions.
There is ABSOLUTELY NO WARRANTY; not even for MERCHANTABILITY or FITNESS FOR A PARTICULAR PURPOSE.
For details see the documentation.
Scientific users of this library should cite U. Ekstrom, L. Visscher, R. Bast, A. J. Thorvaldsen and K. Ruud;
J.Chem.Theor.Comp. 2010, DOI: 10.1021/ct100117s
XCFun Version 0.99 

Warning: RI is on but no J-basis has been assigned. Assigning Def2/J (nothing to worry about!)
================================================================================

----- Orbital basis set information -----
Your calculation utilizes the basis: def2-TZVP
   F. Weigend and R. Ahlrichs, Phys. Chem. Chem. Phys. 7, 3297 (2005).

----- AuxJ basis set information -----
Your calculation utilizes the auxiliary basis: def2/J
   F. Weigend, Phys. Chem. Chem. Phys. 8, 1057 (2006).

================================================================================
                                        WARNINGS
                       Please study these warnings very carefully!
================================================================================

WARNING: Functional chosen is sensitive to the integration grid.
         DEFGRID3 seems to be a minimum grid for robust results!

WARNING: Geometry Optimization
  ===> : Switching off AutoStart
         For restart on a previous wavefunction, please use MOREAD

================================================================================
                                       INPUT FILE
================================================================================
NAME = molecule_neutral_opt_freq.inp
|  1> ! M062X TightSCF Def2-TZVP Opt Freq SlowConv XYZFile CPCM(methanol)

|  2> %pal nprocs 16 end

|  3> * xyz 0 1

|  4> O 0.94453189 0.39820890 -1.91970118

|  5> C 1.41324380 -0.09735652 -0.89934269

|  6> N 0.68192267 -0.81834902 0.02070393

|  7> O -0.72028834 -0.71405244 -0.19734427

|  8> C -1.38880152 -0.47478249 0.96421746

|  9> C -2.84452108 -0.30699837 0.71654580

| 10> C -3.38437428 -0.24813988 -0.57659943

| 11> C -4.76181476 -0.08586537 -0.75515150

| 12> C -5.59794092 0.01931885 0.35568048

| 13> Br -7.45921001 0.23854108 0.11097736

| 14> C -5.07170351 -0.03389534 1.64539926

| 15> C -3.69528473 -0.19558368 1.82581113

| 16> O -0.86083793 -0.41777314 2.06669396

| 17> C 2.85116269 0.10798454 -0.56170649

| 18> C 3.52450226 1.18904879 -1.14617818

| 19> C 4.87024600 1.42028648 -0.85612481

| 20> C 5.55189147 0.56898020 0.01216581

| 21> C 4.89288625 -0.51777851 0.58644901

| 22> C 3.54568690 -0.75304366 0.29968030

| 23> H 0.94897995 -0.79049942 1.00384031

| 24> H -2.74761599 -0.32004381 -1.45661728

| 25> H -5.16908249 -0.04035817 -1.76246610

| 26> H -5.72033809 0.05039712 2.51385447

| 27> H -3.29020718 -0.23410634 2.83573155

| 28> H 3.00084731 1.85616849 -1.82869690

| 29> H 5.38599005 2.26266672 -1.31070961

| 30> H 6.60111805 0.74833108 0.23502938

| 31> H 5.43253983 -1.18739454 1.25220946

| 32> H 3.06647171 -1.62391156 0.73812825

| 33> *

| 34> 
| 35>                          ****END OF INPUT****
================================================================================

                       *****************************
                       * Geometry Optimization Run *
                       *****************************

Geometry optimization settings:
Update method            Update   .... BFGS
Choice of coordinates    CoordSys .... (2022) Redundant Internals
Initial Hessian          InHess   .... Almloef's Model
Max. no of cycles        MaxIter  .... 87

Convergence Tolerances:
Energy Change            TolE     ....  5.0000e-06 Eh
Max. Gradient            TolMAXG  ....  3.0000e-04 Eh/bohr
RMS Gradient             TolRMSG  ....  1.0000e-04 Eh/bohr
Max. Displacement        TolMAXD  ....  4.0000e-03 bohr
RMS Displacement         TolRMSD  ....  2.0000e-03 bohr
Strict Convergence                .... False

------------------------------------------------------------------------------
                        ORCA OPTIMIZATION COORDINATE SETUP
------------------------------------------------------------------------------

The optimization will be done in redundant internal coordinates (2022)
Making redundant internal coordinates   ...  (2022 redundants) done
Evaluating the initial hessian          ...  (Almloef) done
Evaluating the coordinates              ...  done
Calculating the B-matrix                .... done
Calculating the G-matrix                .... done
Diagonalizing the G-matrix              .... done
Small eigenvalue found = 3.278e-03
Small eigenvalue found = 7.012e-03
Small eigenvalue found = 1.265e-02
Small eigenvalue found = 1.713e-02
The first mode is                       ....   60
The number of degrees of freedom        ....   81

    -----------------------------------------------------------------
                    Redundant Internal Coordinates


    -----------------------------------------------------------------
         Definition                    Initial Value    Approx d2E/dq
    -----------------------------------------------------------------
      1. B(C   1,O   0)                  1.2274         1.017093   
      2. B(N   2,C   1)                  1.3788         0.583057   
      3. B(O   3,N   2)                  1.4229         0.444158   
      4. B(C   4,O   3)                  1.3614         0.621612   
      5. B(C   5,C   4)                  1.4861         0.438888   
      6. B(C   6,C   5)                  1.4025         0.596657   
      7. B(C   7,C   6)                  1.3984         0.605784   
      8. B(C   8,C   7)                  1.3943         0.614967   
      9. B(Br  9,C   8)                  1.8900         0.334539   
     10. B(C  10,C   8)                  1.3940         0.615767   
     11. B(C  11,C  10)                  1.3976         0.607646   
     12. B(C  11,C   5)                  1.4024         0.597008   
     13. B(O  12,C   4)                  1.2237         1.030840   
     14. B(C  13,C   1)                  1.4912         0.430753   
     15. B(C  14,C  13)                  1.4013         0.599350   
     16. B(C  15,C  14)                  1.3959         0.611327   
     17. B(C  16,C  15)                  1.3940         0.615637   
     18. B(C  17,C  16)                  1.3947         0.614145   
     19. B(C  18,C  17)                  1.3973         0.608196   
     20. B(C  18,C  13)                  1.4020         0.597760   
     21. B(H  19,O  12)                  2.1317         0.007025   
     22. B(H  19,N   2)                  1.0191         0.418416   
     23. B(H  20,C   6)                  1.0886         0.361949   
     24. B(H  21,C   7)                  1.0875         0.363444   
     25. B(H  22,C  10)                  1.0872         0.363797   
     26. B(H  23,C  11)                  1.0888         0.361675   
     27. B(H  24,C  14)                  1.0886         0.361929   
     28. B(H  25,C  15)                  1.0873         0.363676   
     29. B(H  26,C  16)                  1.0875         0.363389   
     30. B(H  27,C  17)                  1.0876         0.363304   
     31. B(H  28,C  18)                  1.0864         0.364876   
     32. A(O   0,C   1,C  13)          120.0572         0.441510   
     33. A(N   2,C   1,C  13)          115.6173         0.399797   
     34. A(O   0,C   1,N   2)          124.2852         0.463405   
     35. A(O   3,N   2,H  19)          113.8321         0.335083   
     36. A(C   1,N   2,O   3)          112.4641         0.396780   
     37. A(C   1,N   2,H  19)          119.3683         0.352931   
     38. A(N   2,O   3,C   4)          111.4721         0.401273   
     39. A(C   5,C   4,O  12)          124.5761         0.444083   
     40. A(O   3,C   4,C   5)          111.0173         0.405672   
     41. A(O   3,C   4,O  12)          124.4035         0.470027   
     42. A(C   6,C   5,C  11)          119.5015         0.428168   
     43. A(C   4,C   5,C   6)          122.3727         0.405352   
     44. A(C   4,C   5,C  11)          118.1243         0.405394   
     45. A(C   7,C   6,H  20)          118.7250         0.351831   
     46. A(C   5,C   6,C   7)          120.1145         0.429290   
     47. A(C   5,C   6,H  20)          121.1592         0.350930   
     48. A(C   6,C   7,H  21)          119.4730         0.352077   
     49. A(C   6,C   7,C   8)          119.8483         0.431626   
     50. A(C   8,C   7,H  21)          120.6784         0.352974   
     51. A(Br  9,C   8,C  10)          119.7344         0.414085   
     52. A(C   7,C   8,Br  9)          119.7451         0.413990   
     53. A(C   7,C   8,C  10)          120.5205         0.432896   
     54. A(C   8,C  10,C  11)          119.7125         0.431965   
     55. A(C  11,C  10,H  22)          119.5658         0.352317   
     56. A(C   8,C  10,H  22)          120.7216         0.353110   
     57. A(C   5,C  11,C  10)          120.3018         0.429572   
     58. A(C  10,C  11,H  23)          119.3559         0.351969   
     59. A(C   5,C  11,H  23)          120.3423         0.350920   
     60. A(C  14,C  13,C  18)          119.4720         0.428611   
     61. A(C   1,C  13,C  18)          122.1540         0.404147   
     62. A(C   1,C  13,C  14)          118.3672         0.404337   
     63. A(C  13,C  14,C  15)          120.2887         0.430340   
     64. A(C  15,C  14,H  24)          119.5044         0.352371   
     65. A(C  13,C  14,H  24)          120.2068         0.351194   
     66. A(C  14,C  15,C  16)          119.9775         0.432418   
     67. A(C  16,C  15,H  25)          120.1054         0.353077   
     68. A(C  14,C  15,H  25)          119.9168         0.352658   
     69. A(C  15,C  16,C  17)          120.0849         0.432776   
     70. A(C  17,C  16,H  26)          119.9998         0.352885   
     71. A(C  15,C  16,H  26)          119.9133         0.353030   
     72. A(C  16,C  17,C  18)          120.1490         0.431831   
     73. A(C  18,C  17,H  27)          120.0236         0.352291   
     74. A(C  16,C  17,H  27)          119.8254         0.352871   
     75. A(C  13,C  18,C  17)          120.0187         0.429739   
     76. A(C  17,C  18,H  28)          118.5166         0.352548   
     77. A(C  13,C  18,H  28)          121.4480         0.351518   
     78. D(O   3,N   2,C   1,C  13)    166.3172         0.027285   
     79. D(H  19,N   2,C   1,O   0)   -148.6218         0.027285   
     80. D(O   3,N   2,C   1,O   0)    -11.3656         0.027285   
     81. D(H  19,N   2,C   1,C  13)     29.0610         0.027285   
     82. D(C   4,O   3,N   2,H  19)      5.6550         0.016400   
     83. D(C   4,O   3,N   2,C   1)   -134.0569         0.016400   
     84. D(O  12,C   4,O   3,N   2)     -3.1606         0.028360   
     85. D(C   5,C   4,O   3,N   2)    177.4501         0.028360   
     86. D(C  11,C   5,C   4,O  12)     -6.0586         0.013145   
     87. D(C  11,C   5,C   4,O   3)    173.3295         0.013145   
     88. D(C   6,C   5,C   4,O   3)     -7.1236         0.013145   
     89. D(C   6,C   5,C   4,O  12)    173.4884         0.013145   
     90. D(H  20,C   6,C   5,C   4)     -0.2600         0.024527   
     91. D(C   7,C   6,C   5,C   4)   -179.8421         0.024527   
     92. D(C   7,C   6,C   5,C  11)     -0.3012         0.024527   
     93. D(H  20,C   6,C   5,C  11)    179.2809         0.024527   
     94. D(H  21,C   7,C   6,H  20)      0.3341         0.025325   
     95. D(H  21,C   7,C   6,C   5)    179.9262         0.025325   
     96. D(C   8,C   7,C   6,H  20)   -179.5002         0.025325   
     97. D(C   8,C   7,C   6,C   5)      0.0920         0.025325   
     98. D(C  10,C   8,C   7,H  21)   -179.7333         0.026144   
     99. D(C  10,C   8,C   7,C   6)      0.0989         0.026144   
    100. D(Br  9,C   8,C   7,H  21)      0.1689         0.026144   
    101. D(Br  9,C   8,C   7,C   6)   -179.9989         0.026144   
    102. D(H  22,C  10,C   8,Br  9)     -0.0636         0.026216   
    103. D(H  22,C  10,C   8,C   7)    179.8386         0.026216   
    104. D(C  11,C  10,C   8,Br  9)   -179.9798         0.026216   
    105. D(C  11,C  10,C   8,C   7)     -0.0775         0.026216   
    106. D(H  23,C  11,C   5,C   4)     -0.1125         0.024558   
    107. D(C  10,C  11,C   5,C   6)      0.3231         0.024558   
    108. D(C  10,C  11,C   5,C   4)    179.8834         0.024558   
    109. D(H  23,C  11,C  10,H  22)     -0.0561         0.025490   
    110. D(H  23,C  11,C  10,C   8)    179.8610         0.025490   
    111. D(C   5,C  11,C  10,H  22)    179.9479         0.025490   
    112. D(C   5,C  11,C  10,C   8)     -0.1350         0.025490   
    113. D(H  23,C  11,C   5,C   6)   -179.6728         0.024558   
    114. D(C  18,C  13,C   1,N   2)     23.8064         0.012676   
    115. D(C  18,C  13,C   1,O   0)   -158.4056         0.012676   
    116. D(C  14,C  13,C   1,N   2)   -157.1472         0.012676   
    117. D(C  14,C  13,C   1,O   0)     20.6408         0.012676   
    118. D(H  24,C  14,C  13,C  18)    179.0633         0.024761   
    119. D(H  24,C  14,C  13,C   1)     -0.0094         0.024761   
    120. D(C  15,C  14,C  13,C  18)     -1.0559         0.024761   
    121. D(C  15,C  14,C  13,C   1)    179.8715         0.024761   
    122. D(H  25,C  15,C  14,H  24)      0.0654         0.025817   
    123. D(H  25,C  15,C  14,C  13)   -179.8163         0.025817   
    124. D(C  16,C  15,C  14,H  24)   -179.7335         0.025817   
    125. D(C  16,C  15,C  14,C  13)      0.3848         0.025817   
    126. D(H  26,C  16,C  15,H  25)      0.0146         0.026204   
    127. D(H  26,C  16,C  15,C  14)    179.8131         0.026204   
    128. D(C  17,C  16,C  15,H  25)   -179.4739         0.026204   
    129. D(C  17,C  16,C  15,C  14)      0.3246         0.026204   
    130. D(H  27,C  17,C  16,H  26)     -0.3542         0.026070   
    131. D(H  27,C  17,C  16,C  15)    179.1338         0.026070   
    132. D(C  18,C  17,C  16,H  26)   -179.8426         0.026070   
    133. D(C  18,C  17,C  16,C  15)     -0.3546         0.026070   
    134. D(C  13,C  18,C  17,H  27)   -179.8114         0.025538   
    135. D(C  13,C  18,C  17,C  16)     -0.3240         0.025538   
    136. D(H  28,C  18,C  13,C  14)   -177.4643         0.024623   
    137. D(H  28,C  18,C  13,C   1)      1.5718         0.024623   
    138. D(C  17,C  18,C  13,C  14)      1.0236         0.024623   
    139. D(H  28,C  18,C  17,C  16)    178.2079         0.025538   
    140. D(C  17,C  18,C  13,C   1)   -179.9402         0.024623   
    141. D(H  28,C  18,C  17,H  27)     -1.2794         0.025538   
    -----------------------------------------------------------------

Number of atoms                         .... 29
Number of degrees of freedom            .... 141


         *************************************************************
         *                GEOMETRY OPTIMIZATION CYCLE   1            *
         *************************************************************
---------------------------------
CARTESIAN COORDINATES (ANGSTROEM)
---------------------------------
  O      0.944532    0.398209   -1.919701
  C      1.413244   -0.097357   -0.899343
  N      0.681923   -0.818349    0.020704
  O     -0.720288   -0.714052   -0.197344
  C     -1.388802   -0.474782    0.964217
  C     -2.844521   -0.306998    0.716546
  C     -3.384374   -0.248140   -0.576599
  C     -4.761815   -0.085865   -0.755151
  C     -5.597941    0.019319    0.355680
  Br    -7.459210    0.238541    0.110977
  C     -5.071704   -0.033895    1.645399
  C     -3.695285   -0.195584    1.825811
  O     -0.860838   -0.417773    2.066694
  C      2.851163    0.107985   -0.561706
  C      3.524502    1.189049   -1.146178
  C      4.870246    1.420286   -0.856125
  C      5.551891    0.568980    0.012166
  C      4.892886   -0.517779    0.586449
  C      3.545687   -0.753044    0.299680
  H      0.948980   -0.790499    1.003840
  H     -2.747616   -0.320044   -1.456617
  H     -5.169082   -0.040358   -1.762466
  H     -5.720338    0.050397    2.513854
  H     -3.290207   -0.234106    2.835732
  H      3.000847    1.856168   -1.828697
  H      5.385990    2.262667   -1.310710
  H      6.601118    0.748331    0.235029
  H      5.432540   -1.187395    1.252209
  H      3.066472   -1.623912    0.738128

----------------------------
CARTESIAN COORDINATES (A.U.)
----------------------------
  NO LB      ZA    FRAG     MASS         X           Y           Z
   0 O     8.0000    0    15.999    1.784907    0.752506   -3.627709
   1 C     6.0000    0    12.011    2.670644   -0.183977   -1.699511
   2 N     7.0000    0    14.007    1.288647   -1.546456    0.039125
   3 O     8.0000    0    15.999   -1.361148   -1.349364   -0.372927
   4 C     6.0000    0    12.011   -2.624455   -0.897209    1.822107
   5 C     6.0000    0    12.011   -5.375366   -0.580143    1.354075
   6 C     6.0000    0    12.011   -6.395541   -0.468916   -1.089615
   7 C     6.0000    0    12.011   -8.998526   -0.162262   -1.427030
   8 C     6.0000    0    12.011  -10.578575    0.036507    0.672139
   9 Br   35.0000    0    79.900  -14.095864    0.450777    0.209717
  10 C     6.0000    0    12.011   -9.584131   -0.064053    3.109354
  11 C     6.0000    0    12.011   -6.983076   -0.369600    3.450283
  12 O     8.0000    0    15.999   -1.626748   -0.789477    3.905486
  13 C     6.0000    0    12.011    5.387917    0.204061   -1.061471
  14 C     6.0000    0    12.011    6.660344    2.246977   -2.165963
  15 C     6.0000    0    12.011    9.203431    2.683952   -1.617841
  16 C     6.0000    0    12.011   10.491554    1.075217    0.022990
  17 C     6.0000    0    12.011    9.246215   -0.978460    1.108228
  18 C     6.0000    0    12.011    6.700377   -1.423046    0.566314
  19 H     1.0000    0     1.008    1.793312   -1.493827    1.896983
  20 H     1.0000    0     1.008   -5.192242   -0.604795   -2.752608
  21 H     1.0000    0     1.008   -9.768150   -0.076266   -3.330578
  22 H     1.0000    0     1.008  -10.809872    0.095237    4.750496
  23 H     1.0000    0     1.008   -6.217590   -0.442397    5.358756
  24 H     1.0000    0     1.008    5.670780    3.507650   -3.455736
  25 H     1.0000    0     1.008   10.178046    4.275820   -2.476882
  26 H     1.0000    0     1.008   12.474305    1.414141    0.444141
  27 H     1.0000    0     1.008   10.266012   -2.243850    2.366333
  28 H     1.0000    0     1.008    5.794792   -3.068748    1.394860

--------------------------------
INTERNAL COORDINATES (ANGSTROEM)
--------------------------------
 O      0   0   0     0.000000000000     0.00000000     0.00000000
 C      1   0   0     1.227357889204     0.00000000     0.00000000
 N      2   1   0     1.378820714674   124.28519067     0.00000000
 O      3   2   1     1.422890899081   112.46409455   348.63442636
 C      4   3   2     1.361391065568   111.47207812   225.94312662
 C      5   4   3     1.486140033596   111.01732430   177.45008250
 C      6   5   4     1.402544254299   122.37267873   352.87642840
 C      7   6   5     1.398412004468   120.11452781   180.15792441
 C      8   7   6     1.394316450224   119.84834127     0.09201052
 Br     9   8   7     1.890042493822   119.74505401   180.00113352
 C      9   8   7     1.393962730200   120.52047423     0.09890211
 C     11   9   8     1.397576552488   119.71253551   359.92247383
 O      5   4   3     1.223703416439   124.40350176   356.83940087
 C      2   1   3     1.491232338937   120.05719626   182.41409505
 C     14   2   1     1.401318395500   118.36721433    20.64079315
 C     15  14   2     1.395932677630   120.28872297   179.87149861
 C     16  15  14     1.394019917332   119.97748436     0.38481767
 C     17  16  15     1.394680453563   120.08494341     0.32461491
 C     18  17  16     1.397330337637   120.14903477   359.64536023
 H      3   2   1     1.019142940269   119.36826479   211.37821891
 H      7   6   5     1.088605856751   121.15920035   359.73998266
 H      8   7   6     1.087483614830   119.47301888   179.92624763
 H     11   9   8     1.087219613951   120.72161655   179.83860932
 H     12  11   9     1.088811770501   119.35590430   179.86097799
 H     15  14   2     1.088620688733   120.20675730     0.00000000
 H     16  15  14     1.087310321042   119.91675998   180.18369642
 H     17  16  15     1.087525321622   119.91329844   179.81305923
 H     18  17  16     1.087588428967   119.82535545   179.13376776
 H     19  18  17     1.086413688443   118.51655749   178.20794431

---------------------------
INTERNAL COORDINATES (A.U.)
---------------------------
 O      0   0   0     0.000000000000     0.00000000     0.00000000
 C      1   0   0     2.319370278903     0.00000000     0.00000000
 N      2   1   0     2.605593538511   124.28519067     0.00000000
 O      3   2   1     2.688874117712   112.46409455   348.63442636
 C      4   3   2     2.572656275090   111.47207812   225.94312662
 C      5   4   3     2.808397660154   111.01732430   177.45008250
 C      6   5   4     2.650424531330   122.37267873   352.87642840
 C      7   6   5     2.642615710832   120.11452781   180.15792441
 C      8   7   6     2.634876234944   119.84834127     0.09201052
 Br     9   8   7     3.571662694797   119.74505401   180.00113352
 C      9   8   7     2.634207800970   120.52047423     0.09890211
 C     11   9   8     2.641036935393   119.71253551   359.92247383
 O      5   4   3     2.312464326214   124.40350176   356.83940087
 C      2   1   3     2.818020722638   120.05719626   182.41409505
 C     14   2   1     2.648107993921   118.36721433    20.64079315
 C     15  14   2     2.637930462111   120.28872297   179.87149861
 C     16  15  14     2.634315868989   119.97748436     0.38481767
 C     17  16  15     2.635564101567   120.08494341     0.32461491
 C     18  17  16     2.640571656753   120.14903477   359.64536023
 H      3   2   1     1.925901048428   119.36826479   211.37821891
 H      7   6   5     2.057166937041   121.15920035   359.73998266
 H      8   7   6     2.055046207156   119.47301888   179.92624763
 H     11   9   8     2.054547317796   120.72161655   179.83860932
 H     12  11   9     2.057556057636   119.35590430   179.86097799
 H     15  14   2     2.057194965427   120.20675730     0.00000000
 H     16  15  14     2.054718729355   119.91675998   180.18369642
 H     17  16  15     2.055125021570   119.91329844   179.81305923
 H     18  17  16     2.055244277170   119.82535545   179.13376776
 H     19  18  17     2.053024339301   118.51655749   178.20794431

---------------------
BASIS SET INFORMATION
---------------------
There are 5 groups of distinct atoms

 Group   1 Type O   : 11s6p2d1f contracted to 5s3p2d1f pattern {62111/411/11/1}
 Group   2 Type C   : 11s6p2d1f contracted to 5s3p2d1f pattern {62111/411/11/1}
 Group   3 Type N   : 11s6p2d1f contracted to 5s3p2d1f pattern {62111/411/11/1}
 Group   4 Type Br  : 17s13p8d1f contracted to 6s5p4d1f pattern {842111/64111/5111/1}
 Group   5 Type H   : 5s1p contracted to 3s1p pattern {311/1}

Atom   0O    basis set group =>   1
Atom   1C    basis set group =>   2
Atom   2N    basis set group =>   3
Atom   3O    basis set group =>   1
Atom   4C    basis set group =>   2
Atom   5C    basis set group =>   2
Atom   6C    basis set group =>   2
Atom   7C    basis set group =>   2
Atom   8C    basis set group =>   2
Atom   9Br   basis set group =>   4
Atom  10C    basis set group =>   2
Atom  11C    basis set group =>   2
Atom  12O    basis set group =>   1
Atom  13C    basis set group =>   2
Atom  14C    basis set group =>   2
Atom  15C    basis set group =>   2
Atom  16C    basis set group =>   2
Atom  17C    basis set group =>   2
Atom  18C    basis set group =>   2
Atom  19H    basis set group =>   5
Atom  20H    basis set group =>   5
Atom  21H    basis set group =>   5
Atom  22H    basis set group =>   5
Atom  23H    basis set group =>   5
Atom  24H    basis set group =>   5
Atom  25H    basis set group =>   5
Atom  26H    basis set group =>   5
Atom  27H    basis set group =>   5
Atom  28H    basis set group =>   5
---------------------------------
AUXILIARY/J BASIS SET INFORMATION
---------------------------------
There are 5 groups of distinct atoms

 Group   1 Type O   : 12s5p4d2f1g contracted to 6s4p3d1f1g pattern {711111/2111/211/2/1}
 Group   2 Type C   : 12s5p4d2f1g contracted to 6s4p3d1f1g pattern {711111/2111/211/2/1}
 Group   3 Type N   : 12s5p4d2f1g contracted to 6s4p3d1f1g pattern {711111/2111/211/2/1}
 Group   4 Type Br  : 19s5p5d3f1g contracted to 8s4p3d2f1g pattern {121111111/2111/311/21/1}
 Group   5 Type H   : 5s2p1d contracted to 3s1p1d pattern {311/2/1}

Atom   0O    basis set group =>   1
Atom   1C    basis set group =>   2
Atom   2N    basis set group =>   3
Atom   3O    basis set group =>   1
Atom   4C    basis set group =>   2
Atom   5C    basis set group =>   2
Atom   6C    basis set group =>   2
Atom   7C    basis set group =>   2
Atom   8C    basis set group =>   2
Atom   9Br   basis set group =>   4
Atom  10C    basis set group =>   2
Atom  11C    basis set group =>   2
Atom  12O    basis set group =>   1
Atom  13C    basis set group =>   2
Atom  14C    basis set group =>   2
Atom  15C    basis set group =>   2
Atom  16C    basis set group =>   2
Atom  17C    basis set group =>   2
Atom  18C    basis set group =>   2
Atom  19H    basis set group =>   5
Atom  20H    basis set group =>   5
Atom  21H    basis set group =>   5
Atom  22H    basis set group =>   5
Atom  23H    basis set group =>   5
Atom  24H    basis set group =>   5
Atom  25H    basis set group =>   5
Atom  26H    basis set group =>   5
Atom  27H    basis set group =>   5
Atom  28H    basis set group =>   5


           ************************************************************
           *        Program running with 16 parallel MPI-processes    *
           *              working on a common directory               *
           ************************************************************
------------------------------------------------------------------------------
                             ORCA STARTUP CALCULATIONS
                           -- RI-GTO INTEGRALS CHOSEN --
------------------------------------------------------------------------------
------------------------------------------------------------------------------
                   ___                                                        
                  /   \      - P O W E R E D   B Y -                         
                 /     \                                                     
                 |  |  |   _    _      __       _____    __    __             
                 |  |  |  | |  | |    /  \     |  _  \  |  |  /  |          
                  \  \/   | |  | |   /    \    | | | |  |  | /  /          
                 / \  \   | |__| |  /  /\  \   | |_| |  |  |/  /          
                |  |  |   |  __  | /  /__\  \  |    /   |      \           
                |  |  |   | |  | | |   __   |  |    \   |  |\   \          
                \     /   | |  | | |  |  |  |  | |\  \  |  | \   \       
                 \___/    |_|  |_| |__|  |__|  |_| \__\ |__|  \__/        
                                                                              
                      - O R C A' S   B I G   F R I E N D -                    
                                      &                                       
                       - I N T E G R A L  F E E D E R -                       
                                                                              
 v1 FN, 2020, v2 2021, v3 2022-2024                                           
------------------------------------------------------------------------------


----------------------
SHARK INTEGRAL PACKAGE
----------------------

Number of atoms                             ...     29
Number of basis functions                   ...    666
Number of shells                            ...    254
Maximum angular momentum                    ...      3
Integral batch strategy                     ... SHARK/LIBINT Hybrid
RI-J (if used) integral strategy            ... SPLIT-RIJ (Revised 2003 algorithm where possible)
Printlevel                                  ...      1
Contraction scheme used                     ... SEGMENTED contraction
Prescreening option                         ... SCHWARTZ
   Thresh                                   ... 2.500e-11
   Tcut                                     ... 2.500e-12
   Tpresel                                  ... 2.500e-12 
Coulomb Range Separation                    ... NOT USED
Exchange Range Separation                   ... NOT USED
Multipole approximations                    ... NOT USED
Finite Nucleus Model                        ... NOT USED
CABS basis                                  ... NOT available
Auxiliary Coulomb fitting basis             ... AVAILABLE
   # of basis functions in Aux-J            ...   1050
   # of shells in Aux-J                     ...    338
   Maximum angular momentum in Aux-J        ...      4
Auxiliary J/K fitting basis                 ... NOT available
Auxiliary Correlation fitting basis         ... NOT available
Auxiliary 'external' fitting basis          ... NOT available

Checking pre-screening integrals            ... done (  0.0 sec) Dimension = 254
Check shell pair data                       ... done (  0.0 sec)
Shell pair information
Shell pair cut-off parameter TPreSel        ...   2.5e-12
Total number of shell pairs                 ...     32385
Shell pairs after pre-screening             ...     20740
Total number of primitive shell pairs       ...    106062
Primitive shell pairs kept                  ...     44821
          la=0 lb=0:   4878 shell pairs
          la=1 lb=0:   5881 shell pairs
          la=1 lb=1:   1776 shell pairs
          la=2 lb=0:   3059 shell pairs
          la=2 lb=1:   1854 shell pairs
          la=2 lb=2:    489 shell pairs
          la=3 lb=0:   1397 shell pairs
          la=3 lb=1:    865 shell pairs
          la=3 lb=2:    436 shell pairs
          la=3 lb=3:    105 shell pairs

Calculating one electron integrals          ... done (  0.1 sec)
Calculating RI/J V-Matrix + Cholesky decomp.... done (  0.3 sec)
Calculating Nuclear repulsion               ... done (  0.0 sec) ENN=   1553.968863424408 Eh

Diagonalization of the overlap matrix:
Smallest eigenvalue                        ... 8.180e-06
Time for diagonalization                   ...    0.204 sec
Threshold for overlap eigenvalues          ... 1.000e-07
Number of eigenvalues below threshold      ... 0
Time for construction of square roots      ...    0.145 sec
Total time needed                          ...    0.379 sec

-------------------
DFT GRID GENERATION
-------------------

General Integration Accuracy     IntAcc      ... 4.388
Radial Grid Type                 RadialGrid  ... OptM3 with GC (2021)
Angular Grid (max. ang.)         AngularGrid ... 4 (Lebedev-302)
Angular grid pruning method      GridPruning ... 4 (adaptive)
Weight generation scheme         WeightScheme... mBecke (2022)
Basis function cutoff            BFCut       ... 1.0000e-11
Integration weight cutoff        WCut        ... 1.0000e-14
Partially contracted basis set               ... off
Rotationally invariant grid construction     ... off
Angular grids for H and He will be reduced by one unit
Core-polarized basis detected: some atoms will have their core
                               angular grid increased.

Total number of grid points                  ...   151582
Total number of batches                      ...     2382
Average number of points per batch           ...       63
Average number of grid points per atom       ...     5227

--------------------
COSX GRID GENERATION
--------------------

GRIDX 1
-------
General Integration Accuracy     IntAcc      ... 3.816
Radial Grid Type                 RadialGrid  ... OptM3 with GC (2021)
Angular Grid (max. ang.)         AngularGrid ... 1 (Lebedev-50)
Angular grid pruning method      GridPruning ... 4 (adaptive)
Weight generation scheme         WeightScheme... mBecke (2022)
Basis function cutoff            BFCut       ... 1.0000e-11
Integration weight cutoff        WCut        ... 1.0000e-14
Partially contracted basis set               ... on
Rotationally invariant grid construction     ... off
Angular grids for H and He will be reduced by one unit
Core-polarized basis detected: some atoms will have their core
                               angular grid increased.

Total number of grid points                  ...    23964
Total number of batches                      ...      203
Average number of points per batch           ...      118
Average number of grid points per atom       ...      826
UseSFitting                                  ... on

GRIDX 2
-------
General Integration Accuracy     IntAcc      ... 4.020
Radial Grid Type                 RadialGrid  ... OptM3 with GC (2021)
Angular Grid (max. ang.)         AngularGrid ... 2 (Lebedev-110)
Angular grid pruning method      GridPruning ... 4 (adaptive)
Weight generation scheme         WeightScheme... mBecke (2022)
Basis function cutoff            BFCut       ... 1.0000e-11
Integration weight cutoff        WCut        ... 1.0000e-14
Partially contracted basis set               ... on
Rotationally invariant grid construction     ... off
Angular grids for H and He will be reduced by one unit
Core-polarized basis detected: some atoms will have their core
                               angular grid increased.

Total number of grid points                  ...    45747
Total number of batches                      ...      369
Average number of points per batch           ...      123
Average number of grid points per atom       ...     1577
UseSFitting                                  ... on

GRIDX 3
-------
General Integration Accuracy     IntAcc      ... 4.338
Radial Grid Type                 RadialGrid  ... OptM3 with GC (2021)
Angular Grid (max. ang.)         AngularGrid ... 3 (Lebedev-194)
Angular grid pruning method      GridPruning ... 4 (adaptive)
Weight generation scheme         WeightScheme... mBecke (2022)
Basis function cutoff            BFCut       ... 1.0000e-11
Integration weight cutoff        WCut        ... 1.0000e-14
Partially contracted basis set               ... on
Rotationally invariant grid construction     ... off
Angular grids for H and He will be reduced by one unit
Core-polarized basis detected: some atoms will have their core
                               angular grid increased.

Total number of grid points                  ...    93209
Total number of batches                      ...      742
Average number of points per batch           ...      125
Average number of grid points per atom       ...     3214
UseSFitting                                  ... on
Initializing property integral containers    ... done (  0.1 sec)

SHARK setup successfully completed in   6.7 seconds

Maximum memory used throughout the entire STARTUP-calculation: 58.9 MB


           ************************************************************
           *        Program running with 16 parallel MPI-processes    *
           *              working on a common directory               *
           ************************************************************
-------------------------------------------------------------------------------
                                 ORCA GUESS
                   Start orbitals & Density for SCF / CASSCF
-------------------------------------------------------------------------------

------------
SCF SETTINGS
------------
Hamiltonian:
 Density Functional     Method          .... DFT(GTOs)
 Exchange Functional    Exchange        .... M062X
 Correlation Functional Correlation     .... M062X
 Gradients option       PostSCFGGA      .... off
 Hybrid DFT is turned on
   Fraction HF Exchange ScalHFX         ....  0.540000
   Scaling of DF-GGA-X  ScalDFX         ....  0.460000
   Scaling of DF-GGA-C  ScalDFC         ....  1.000000
   Scaling of DF-LDA-C  ScalLDAC        ....  1.000000
   Perturbative correction              ....  0.000000
 RI-approximation to the Coulomb term is turned on
   Number of AuxJ basis functions       .... 1050
   RIJ-COSX (HFX calculated with COS-X)).... on


General Settings:
 Integral files         IntName         .... molecule_neutral_opt_freq
 Hartree-Fock type      HFTyp           .... RHF
 Total Charge           Charge          ....    0
 Multiplicity           Mult            ....    1
 Number of Electrons    NEL             ....  160
 Basis Dimension        Dim             ....  666
 Nuclear Repulsion      ENuc            ....   1553.9688634244 Eh

Convergence Acceleration:
 AO-DIIS                CNVDIIS         .... on
   Start iteration      DIISMaxIt       ....     0
   Startup error        DIISStart       ....  0.200000
   # of expansion vecs  DIISMaxEq       ....     5
   Bias factor          DIISBfac        ....   1.050
   Max. coefficient     DIISMaxC        ....  10.000
 MO-DIIS                CNVKDIIS        .... off
 Trust-Rad. Augm. Hess. CNVTRAH         .... auto
   Auto Start mean grad. ratio tolernc. ....  1.125000
   Auto Start start iteration           ....    50
   Auto Start num. interpolation iter.  ....    10
   Max. Number of Micro iterations      ....    24
   Max. Number of Macro iterations      .... Maxiter - #DIIS iter
   Number of Davidson start vectors     ....     2
   Converg. threshold    (grad. norm)   ....   1.000e-05
   Grad. Scal. Fac. for Micro threshold ....   0.100
   Minimum threshold for Micro iter.    ....   1.000e-02
   NR start threshold (gradient norm)   ....   1.000e-04
   Initial trust radius                 ....   0.400
   Minimum AH scaling param. (alpha)    ....   1.000
   Maximum AH scaling param. (alpha)    .... 1000.000
   Quad. conv. algorithm                .... NR
   White noise on init. David. guess    .... on
   Maximum white noise                  ....   0.010
   Pseudo random numbers                .... off
   Inactive MOs                         .... canonical
   Orbital update algorithm             .... Taylor
   Preconditioner                       .... Diag
   Full preconditioner red. dimension   ....   250
 SOSCF                  CNVSOSCF        .... on
   Start iteration      SOSCFMaxIt      ....   150
   Startup grad/error   SOSCFStart      ....  0.001000
   Hessian update       SOSCFHessUp     .... L-BFGS
 Level Shifting         CNVShift        .... on
   Level shift para.    LevelShift      ....    0.2500
   Turn off err/grad.   ShiftErr        ....    0.0000
 Zerner damping         CNVZerner       .... off
 Static damping         CNVDamp         .... on
   Fraction old density DampFac         ....    0.8500
   Max. Damping (<1)    DampMax         ....    0.9800
   Min. Damping (>=0)   DampMin         ....    0.0000
   Turn off err/grad.   DampErr         ....    0.0300

SCF Procedure:
 Maximum # iterations   MaxIter         ....   125
 SCF integral mode      SCFMode         .... Direct
   Integral package                     .... SHARK and LIBINT hybrid scheme
 Reset frequency        DirectResetFreq ....    20
 Integral Threshold     Thresh          ....  2.500e-11 Eh
 Primitive CutOff       TCut            ....  2.500e-12 Eh

Convergence Tolerance:
 Convergence Check Mode ConvCheckMode   .... Total+1el-Energy
 Convergence forced     ConvForced      .... 0
 Energy Change          TolE            ....  1.000e-08 Eh
 1-El. energy change                    ....  1.000e-05 Eh
 Orbital Gradient       TolG            ....  1.000e-05
 Orbital Rotation angle TolX            ....  1.000e-05
 DIIS Error             TolErr          ....  5.000e-07

------------------------------
INITIAL GUESS: MODEL POTENTIAL
------------------------------
Loading Hartree-Fock densities                     ... done
Calculating cut-offs                               ... done
Initializing the effective Hamiltonian             ... done
Setting up the integral package (SHARK)            ... done
Starting the Coulomb interaction                   ... done (   0.2 sec)
Making the grid                                    ... done (   0.5 sec)
Mapping shells                                     ... done
Starting the XC term evaluation                    ... done (   0.2 sec)
  promolecular density results
     # of electrons  =    159.991863910
     EX              =   -194.797257482
     EC              =     -5.922187500
     EX+EC           =   -200.719444982
Transforming the Hamiltonian                       ... done (   0.1 sec)
Diagonalizing the Hamiltonian                      ... done (   0.3 sec)
Back transforming the eigenvectors                 ... done (   0.1 sec)
Now organizing SCF variables                       ... done
                      ------------------
                      INITIAL GUESS DONE (   1.7 sec)
                      ------------------
             **** ENERGY FILE WAS UPDATED (molecule_neutral_opt_freq.en.tmp) ****
Finished Guess after   2.1 sec
Maximum memory used throughout the entire GUESS-calculation: 41.4 MB


           ************************************************************
           *        Program running with 16 parallel MPI-processes    *
           *              working on a common directory               *
           ************************************************************

-------------------------------------------------------------------------------------------
                                      ORCA LEAN-SCF
                              memory conserving SCF solver
-------------------------------------------------------------------------------------------

--------------------
CPCM SOLVATION MODEL
--------------------
CPCM parameters:
  Epsilon                                         ...      33.4280
  Refrac                                          ...       1.3288
  Rsolv                                           ...       1.3000
  Surface type                                    ... GAUSSIAN VDW
  Discretization scheme                           ... Constant charge density
    Threshold for H atoms                         ...       5.0000 (charges/Ang^2)
    Threshold for non-H atoms                     ...       5.0000 (charges/Ang^2)
  Epsilon function type                           ...         CPCM
Solvent:                                          ... METHANOL
Radii:
  Scheme                                          ... Element-dependent radii
  Radius for O  used is    3.4469 Bohr (=   1.8240 Ang.)
  Radius for C  used is    3.8550 Bohr (=   2.0400 Ang.)
  Radius for N  used is    3.5149 Bohr (=   1.8600 Ang.)
  Radius for Br used is    4.1952 Bohr (=   2.2200 Ang.)
  Radius for H  used is    2.4944 Bohr (=   1.3200 Ang.)
Calculating surface                               ...        done! (  0.0s)
Cavity surface points                             ...         2853
Cavity Volume                                     ...    2137.2043
Cavity Surface-area                               ...    1122.8687
Calculating surface distance matrix               ...        done! (  0.1s)
Performing Cholesky decomposition & store         ...        done! (  0.6s)
Overall time for CPCM initialization              ...                 0.7s

----------------------------------------D-I-I-S--------------------------------------------
Iteration    Energy (Eh)           Delta-E    RMSDP     MaxDP     DIISErr   Damp  Time(sec)
-------------------------------------------------------------------------------------------
               ***  Starting incremental Fock matrix formation  ***
    1    -3393.6320582940907116     0.00e+00  5.78e-04  2.99e-02  2.90e-01  0.850   9.6
    2    -3393.7455661762414820    -1.14e-01  6.23e-04  5.18e-02  2.13e-01  0.850   6.7
                               ***Turning on AO-DIIS***
    3    -3393.8231571965707190    -7.76e-02  4.25e-04  2.24e-02  1.44e-01  0.850   6.2
    4    -3393.8753048188700632    -5.21e-02  3.33e-04  1.12e-02  1.19e-01  0.850   6.2
    5    -3393.9143294650193639    -3.90e-02  2.79e-04  9.73e-03  1.03e-01  0.850   6.5
    6    -3393.9457492212786747    -3.14e-02  2.38e-04  8.15e-03  8.85e-02  0.850   5.9
    7    -3393.9718488807202448    -2.61e-02  2.05e-04  6.74e-03  7.45e-02  0.850   5.8
    8    -3393.9935399328687708    -2.17e-02  1.74e-04  5.69e-03  6.16e-02  0.850   5.8
    9    -3394.0113867784411923    -1.78e-02  1.47e-04  4.89e-03  5.16e-02  0.850   5.8
   10    -3394.0261343591691912    -1.47e-02  1.25e-04  4.27e-03  4.37e-02  0.850   5.7
   11    -3394.0384101684685447    -1.23e-02  1.06e-04  3.73e-03  3.71e-02  0.850   5.6
   12    -3394.0486786178262264    -1.03e-02  9.06e-05  3.27e-03  3.12e-02  0.850   5.7
   13    -3394.0572864373589255    -8.61e-03  7.71e-05  2.84e-03  2.62e-02  0.850   5.6
   14    -3394.0645117146959819    -7.23e-03  4.37e-04  1.65e-02  2.20e-02  0.000   5.5
   15    -3394.1040381530465311    -3.95e-02  1.72e-05  1.13e-03  1.52e-03  0.000   5.8
                              *** Initializing SOSCF ***
---------------------------------------S-O-S-C-F--------------------------------------
Iteration    Energy (Eh)           Delta-E    RMSDP     MaxDP     MaxGrad    Time(sec)
--------------------------------------------------------------------------------------
   16    -3394.1040499166483642    -1.18e-05  7.87e-06  4.69e-04  3.01e-04     5.7
               *** Restarting incremental Fock matrix formation ***
   17    -3394.1040891012135035    -3.92e-05  7.55e-05  4.42e-03  1.32e-04     8.9
   18    -3394.1040896525491917    -5.51e-07  3.67e-05  2.11e-03  6.38e-05     6.9
   19    -3394.1040898113478761    -1.59e-07  3.22e-05  1.89e-03  2.94e-05     6.6
   20    -3394.1040898726578234    -6.13e-08  3.82e-06  2.17e-04  3.40e-06     6.5
   21    -3394.1040898727287640    -7.09e-11  1.65e-06  9.64e-05  3.69e-06     6.0
                 **** Energy Check signals convergence ****

               *****************************************************
               *                     SUCCESS                       *
               *           SCF CONVERGED AFTER  21 CYCLES          *
               *****************************************************

Recomputing exchange energy using gridx3       ... done (   10.199 sec)
Old exchange energy                            :   -106.370659709 Eh
New exchange energy                            :   -106.370593578 Eh
Exchange energy change after final integration :      0.000066131 Eh
Total energy after final integration           :  -3394.104023742 Eh
             **** ENERGY FILE WAS UPDATED (molecule_neutral_opt_freq.en.tmp) ****

----------------
TOTAL SCF ENERGY
----------------

Total Energy       :      -3394.10402374206433 Eh          -92358.26589 eV

Components:
Nuclear Repulsion  :       1553.96886342440757 Eh           42285.64253 eV
Electronic Energy  :      -4948.05209239386932 Eh         -134643.34257 eV
One Electron Energy:      -7785.42757990816608 Eh         -211852.25481 eV
Two Electron Energy:       2837.37548751429631 Eh           77208.91224 eV
CPCM Dielectric    :         -0.02086090326566 Eh              -0.56765 eV

Virial components:
Potential Energy   :      -6780.49473754475912 Eh         -184506.64195 eV
Kinetic Energy     :       3386.39071380269525 Eh           92148.37606 eV
Virial Ratio       :          2.00227773774241

DFT components:
N(Alpha)           :       79.999965272317 electrons
N(Beta)            :       79.999965272317 electrons
N(Total)           :      159.999930544634 electrons
E(XC)              :      -97.081973927315 Eh       

CPCM Solvation Model Properties:
Surface-charge          :         -0.03157398166028
Corrected charge        :         -0.00000000000000
Outlying charge corr.   :          0.00005162446418 Eh               0.00140 eV
Free-energy (cav+disp)  :  This term is not implemented in the current solvation scheme

---------------
SCF CONVERGENCE
---------------

  Last Energy change         ...    7.0941e-11  Tolerance :   1.0000e-08
  Last MAX-Density change    ...    9.6408e-05  Tolerance :   1.0000e-07
  Last RMS-Density change    ...    1.6465e-06  Tolerance :   5.0000e-09
  Last DIIS Error            ...    3.0135e-04  Tolerance :   5.0000e-07
  Last Orbital Gradient      ...    3.6932e-06  Tolerance :   1.0000e-05
  Last Orbital Rotation      ...    6.7476e-06  Tolerance :   1.0000e-05


----------------
ORBITAL ENERGIES
----------------

  NO   OCC          E(Eh)            E(eV) 
   0   2.0000    -485.389820    -13208.1285 
   1   2.0000     -63.371634     -1724.4298 
   2   2.0000     -57.190044     -1556.2202 
   3   2.0000     -57.188524     -1556.1789 
   4   2.0000     -57.188511     -1556.1785 
   5   2.0000     -19.738833      -537.1210 
   6   2.0000     -19.648676      -534.6676 
   7   2.0000     -19.623214      -533.9748 
   8   2.0000     -14.847850      -404.0305 
   9   2.0000     -10.709132      -291.4103 
  10   2.0000     -10.674611      -290.4709 
  11   2.0000     -10.619832      -288.9803 
  12   2.0000     -10.581572      -287.9392 
  13   2.0000     -10.573635      -287.7232 
  14   2.0000     -10.572399      -287.6896 
  15   2.0000     -10.570180      -287.6292 
  16   2.0000     -10.568407      -287.5810 
  17   2.0000     -10.568266      -287.5772 
  18   2.0000     -10.560976      -287.3788 
  19   2.0000     -10.558461      -287.3103 
  20   2.0000     -10.554768      -287.2098 
  21   2.0000     -10.553081      -287.1639 
  22   2.0000     -10.552527      -287.1489 
  23   2.0000      -9.038364      -245.9464 
  24   2.0000      -6.862183      -186.7295 
  25   2.0000      -6.853926      -186.5048 
  26   2.0000      -6.853499      -186.4932 
  27   2.0000      -2.896179       -78.8090 
  28   2.0000      -2.893252       -78.7294 
  29   2.0000      -2.892817       -78.7176 
  30   2.0000      -2.884797       -78.4993 
  31   2.0000      -2.884781       -78.4989 
  32   2.0000      -1.292799       -35.1788 
  33   2.0000      -1.190511       -32.3954 
  34   2.0000      -1.167669       -31.7739 
  35   2.0000      -1.018843       -27.7241 
  36   2.0000      -0.994264       -27.0553 
  37   2.0000      -0.971861       -26.4457 
  38   2.0000      -0.921555       -25.0768 
  39   2.0000      -0.870680       -23.6924 
  40   2.0000      -0.866984       -23.5918 
  41   2.0000      -0.854048       -23.2398 
  42   2.0000      -0.844522       -22.9806 
  43   2.0000      -0.764986       -20.8163 
  44   2.0000      -0.726660       -19.7734 
  45   2.0000      -0.718919       -19.5628 
  46   2.0000      -0.706903       -19.2358 
  47   2.0000      -0.698927       -19.0188 
  48   2.0000      -0.675774       -18.3888 
  49   2.0000      -0.637421       -17.3451 
  50   2.0000      -0.617095       -16.7920 
  51   2.0000      -0.604792       -16.4572 
  52   2.0000      -0.586520       -15.9600 
  53   2.0000      -0.571396       -15.5485 
  54   2.0000      -0.549949       -14.9649 
  55   2.0000      -0.545670       -14.8484 
  56   2.0000      -0.540350       -14.7037 
  57   2.0000      -0.532158       -14.4808 
  58   2.0000      -0.522693       -14.2232 
  59   2.0000      -0.513761       -13.9802 
  60   2.0000      -0.511146       -13.9090 
  61   2.0000      -0.509447       -13.8628 
  62   2.0000      -0.497624       -13.5411 
  63   2.0000      -0.489450       -13.3186 
  64   2.0000      -0.475539       -12.9401 
  65   2.0000      -0.453407       -12.3378 
  66   2.0000      -0.437878       -11.9153 
  67   2.0000      -0.434708       -11.8290 
  68   2.0000      -0.429842       -11.6966 
  69   2.0000      -0.427462       -11.6318 
  70   2.0000      -0.412620       -11.2280 
  71   2.0000      -0.393979       -10.7207 
  72   2.0000      -0.391959       -10.6657 
  73   2.0000      -0.370418       -10.0796 
  74   2.0000      -0.361934        -9.8487 
  75   2.0000      -0.350532        -9.5385 
  76   2.0000      -0.331910        -9.0317 
  77   2.0000      -0.322703        -8.7812 
  78   2.0000      -0.320274        -8.7151 
  79   2.0000      -0.313308        -8.5255 
  80   0.0000      -0.044076        -1.1994 
  81   0.0000      -0.023534        -0.6404 
  82   0.0000      -0.002543        -0.0692 
  83   0.0000       0.008009         0.2179 
  84   0.0000       0.032592         0.8869 
  85   0.0000       0.060425         1.6442 
  86   0.0000       0.068108         1.8533 
  87   0.0000       0.080975         2.2034 
  88   0.0000       0.092969         2.5298 
  89   0.0000       0.100849         2.7442 
  90   0.0000       0.107974         2.9381 
*Only the first 10 virtual orbitals were printed.

                    ********************************
                    * MULLIKEN POPULATION ANALYSIS *
                    ********************************

-----------------------
MULLIKEN ATOMIC CHARGES
-----------------------
   0 O :   -0.433172
   1 C :    0.372601
   2 N :   -0.228142
   3 O :   -0.193244
   4 C :    0.420324
   5 C :    0.039770
   6 C :   -0.195583
   7 C :   -0.159707
   8 C :    0.044498
   9 Br:   -0.084855
  10 C :   -0.160903
  11 C :   -0.185994
  12 O :   -0.414814
  13 C :    0.049469
  14 C :   -0.208054
  15 C :   -0.161184
  16 C :   -0.159195
  17 C :   -0.174129
  18 C :   -0.217703
  19 H :    0.321686
  20 H :    0.197711
  21 H :    0.200991
  22 H :    0.199741
  23 H :    0.197647
  24 H :    0.187713
  25 H :    0.181850
  26 H :    0.182340
  27 H :    0.181635
  28 H :    0.198706
Sum of atomic charges:    0.0000000

--------------------------------
MULLIKEN REDUCED ORBITAL CHARGES
--------------------------------
  0 O s       :     3.829677  s :     3.829677
      pz      :     1.388730  p :     4.571611
      px      :     1.734575
      py      :     1.448306
      dz2     :     0.009941  d :     0.029880
      dxz     :     0.006567
      dyz     :     0.007720
      dx2y2   :     0.002566
      dxy     :     0.003086
      f0      :     0.000489  f :     0.002005
      f+1     :     0.000402
      f-1     :     0.000363
      f+2     :     0.000273
      f-2     :     0.000327
      f+3     :     0.000090
      f-3     :     0.000062

  1 C s       :     3.039852  s :     3.039852
      pz      :     0.731050  p :     2.324718
      px      :     0.872881
      py      :     0.720787
      dz2     :     0.063865  d :     0.243701
      dxz     :     0.064605
      dyz     :     0.044469
      dx2y2   :     0.045088
      dxy     :     0.025675
      f0      :     0.003637  f :     0.019127
      f+1     :     0.002865
      f-1     :     0.002850
      f+2     :     0.004273
      f-2     :     0.002397
      f+3     :     0.001449
      f-3     :     0.001656

  2 N s       :     3.502522  s :     3.502522
      pz      :     1.186607  p :     3.650022
      px      :     0.839762
      py      :     1.623653
      dz2     :     0.013333  d :     0.070234
      dxz     :     0.015974
      dyz     :     0.005099
      dx2y2   :     0.014942
      dxy     :     0.020886
      f0      :     0.000818  f :     0.005364
      f+1     :     0.000479
      f-1     :     0.000454
      f+2     :     0.000926
      f-2     :     0.000398
      f+3     :     0.001235
      f-3     :     0.001054

  3 O s       :     3.807009  s :     3.807009
      pz      :     1.487944  p :     4.338310
      px      :     1.107015
      py      :     1.743351
      dz2     :     0.011326  d :     0.045355
      dxz     :     0.011745
      dyz     :     0.005577
      dx2y2   :     0.008298
      dxy     :     0.008408
      f0      :     0.000285  f :     0.002571
      f+1     :     0.000451
      f-1     :     0.000206
      f+2     :     0.000375
      f-2     :     0.000182
      f+3     :     0.000622
      f-3     :     0.000450

  4 C s       :     3.046807  s :     3.046807
      pz      :     0.672818  p :     2.226533
      px      :     0.830019
      py      :     0.723696
      dz2     :     0.079581  d :     0.284561
      dxz     :     0.074418
      dyz     :     0.070948
      dx2y2   :     0.026744
      dxy     :     0.032871
      f0      :     0.006217  f :     0.021775
      f+1     :     0.003372
      f-1     :     0.003465
      f+2     :     0.003513
      f-2     :     0.003253
      f+3     :     0.000915
      f-3     :     0.001040

  5 C s       :     3.193872  s :     3.193872
      pz      :     0.875440  p :     2.689625
      px      :     0.796054
      py      :     1.018131
      dz2     :     0.011481  d :     0.068221
      dxz     :     0.009327
      dyz     :     0.022439
      dx2y2   :     0.012808
      dxy     :     0.012166
      f0      :     0.001734  f :     0.008512
      f+1     :     0.001258
      f-1     :     0.000992
      f+2     :     0.001449
      f-2     :     0.000906
      f+3     :     0.001172
      f-3     :     0.001002

  6 C s       :     3.268097  s :     3.268097
      pz      :     0.977582  p :     2.854127
      px      :     0.959317
      py      :     0.917228
      dz2     :     0.012067  d :     0.066856
      dxz     :     0.018466
      dyz     :     0.011633
      dx2y2   :     0.007904
      dxy     :     0.016787
      f0      :     0.001170  f :     0.006503
      f+1     :     0.001163
      f-1     :     0.000818
      f+2     :     0.001124
      f-2     :     0.000323
      f+3     :     0.000741
      f-3     :     0.001164

  7 C s       :     3.192345  s :     3.192345
      pz      :     0.978693  p :     2.895336
      px      :     0.952161
      py      :     0.964482
      dz2     :     0.009349  d :     0.065387
      dxz     :     0.023684
      dyz     :     0.008868
      dx2y2   :     0.006224
      dxy     :     0.017262
      f0      :     0.001217  f :     0.006639
      f+1     :     0.000951
      f-1     :     0.000475
      f+2     :     0.001214
      f-2     :     0.000589
      f+3     :     0.000870
      f-3     :     0.001323

  8 C s       :     3.249888  s :     3.249888
      pz      :     0.888876  p :     2.576869
      px      :     0.724484
      py      :     0.963509
      dz2     :     0.024632  d :     0.120475
      dxz     :     0.030596
      dyz     :     0.024735
      dx2y2   :     0.017168
      dxy     :     0.023342
      f0      :     0.001741  f :     0.008271
      f+1     :     0.001069
      f-1     :     0.001127
      f+2     :     0.001324
      f-2     :     0.000876
      f+3     :     0.000960
      f-3     :     0.001175

  9 Brs       :     7.920394  s :     7.920394
      pz      :     5.952876  p :    17.102979
      px      :     5.228143
      py      :     5.921960
      dz2     :     2.007728  d :    10.053848
      dxz     :     2.008500
      dyz     :     2.000780
      dx2y2   :     2.019882
      dxy     :     2.016958
      f0      :     0.000606  f :     0.007634
      f+1     :     0.001523
      f-1     :     0.000106
      f+2     :     0.000995
      f-2     :     0.000164
      f+3     :     0.002345
      f-3     :     0.001895

 10 C s       :     3.194024  s :     3.194024
      pz      :     0.935465  p :     2.893943
      px      :     0.993508
      py      :     0.964970
      dz2     :     0.010577  d :     0.066321
      dxz     :     0.022618
      dyz     :     0.012057
      dx2y2   :     0.006990
      dxy     :     0.014079
      f0      :     0.001145  f :     0.006615
      f+1     :     0.001103
      f-1     :     0.000884
      f+2     :     0.001192
      f-2     :     0.000318
      f+3     :     0.000785
      f-3     :     0.001187

 11 C s       :     3.246158  s :     3.246158
      pz      :     1.015870  p :     2.867682
      px      :     0.938243
      py      :     0.913569
      dz2     :     0.010517  d :     0.065651
      dxz     :     0.020191
      dyz     :     0.008188
      dx2y2   :     0.006364
      dxy     :     0.020392
      f0      :     0.001189  f :     0.006502
      f+1     :     0.000988
      f-1     :     0.000421
      f+2     :     0.001184
      f-2     :     0.000644
      f+3     :     0.000821
      f-3     :     0.001254

 12 O s       :     3.847572  s :     3.847572
      pz      :     1.397886  p :     4.535341
      px      :     1.689691
      py      :     1.447764
      dz2     :     0.009488  d :     0.029924
      dxz     :     0.008208
      dyz     :     0.008986
      dx2y2   :     0.001305
      dxy     :     0.001937
      f0      :     0.000552  f :     0.001977
      f+1     :     0.000572
      f-1     :     0.000372
      f+2     :     0.000190
      f-2     :     0.000275
      f+3     :     0.000008
      f-3     :     0.000007

 13 C s       :     3.195208  s :     3.195208
      pz      :     0.937895  p :     2.677135
      px      :     0.830944
      py      :     0.908297
      dz2     :     0.019163  d :     0.069723
      dxz     :     0.010104
      dyz     :     0.006532
      dx2y2   :     0.021426
      dxy     :     0.012497
      f0      :     0.000772  f :     0.008466
      f+1     :     0.001156
      f-1     :     0.001391
      f+2     :     0.001568
      f-2     :     0.001043
      f+3     :     0.000984
      f-3     :     0.001551

 14 C s       :     3.247135  s :     3.247135
      pz      :     0.968893  p :     2.890163
      px      :     0.959312
      py      :     0.961959
      dz2     :     0.006628  d :     0.064281
      dxz     :     0.018971
      dyz     :     0.008987
      dx2y2   :     0.014127
      dxy     :     0.015567
      f0      :     0.000608  f :     0.006476
      f+1     :     0.000734
      f-1     :     0.000920
      f+2     :     0.000999
      f-2     :     0.000956
      f+3     :     0.000843
      f-3     :     0.001416

 15 C s       :     3.237519  s :     3.237519
      pz      :     0.950896  p :     2.854610
      px      :     0.913774
      py      :     0.989940
      dz2     :     0.012600  d :     0.062750
      dxz     :     0.013235
      dyz     :     0.007693
      dx2y2   :     0.012301
      dxy     :     0.016922
      f0      :     0.000769  f :     0.006305
      f+1     :     0.000794
      f-1     :     0.000782
      f+2     :     0.001286
      f-2     :     0.000792
      f+3     :     0.000827
      f-3     :     0.001056

 16 C s       :     3.241879  s :     3.241879
      pz      :     0.919643  p :     2.846282
      px      :     1.025985
      py      :     0.900653
      dz2     :     0.016714  d :     0.064758
      dxz     :     0.009566
      dyz     :     0.008967
      dx2y2   :     0.017077
      dxy     :     0.012435
      f0      :     0.000545  f :     0.006276
      f+1     :     0.000713
      f-1     :     0.001264
      f+2     :     0.001139
      f-2     :     0.000883
      f+3     :     0.000722
      f-3     :     0.001009

 17 C s       :     3.244922  s :     3.244922
      pz      :     0.976774  p :     2.859813
      px      :     0.921693
      py      :     0.961346
      dz2     :     0.006902  d :     0.062998
      dxz     :     0.016483
      dyz     :     0.009666
      dx2y2   :     0.015693
      dxy     :     0.014253
      f0      :     0.000641  f :     0.006396
      f+1     :     0.000699
      f-1     :     0.000901
      f+2     :     0.001063
      f-2     :     0.000930
      f+3     :     0.000823
      f-3     :     0.001338

 18 C s       :     3.253025  s :     3.253025
      pz      :     0.948290  p :     2.892462
      px      :     0.946365
      py      :     0.997806
      dz2     :     0.013161  d :     0.065715
      dxz     :     0.015555
      dyz     :     0.007487
      dx2y2   :     0.009270
      dxy     :     0.020242
      f0      :     0.000805  f :     0.006501
      f+1     :     0.000821
      f-1     :     0.000760
      f+2     :     0.001335
      f-2     :     0.000839
      f+3     :     0.000909
      f-3     :     0.001030

 19 H s       :     0.639921  s :     0.639921
      pz      :     0.022704  p :     0.038394
      px      :     0.005414
      py      :     0.010275

 20 H s       :     0.781682  s :     0.781682
      pz      :     0.010216  p :     0.020608
      px      :     0.006847
      py      :     0.003545

 21 H s       :     0.778361  s :     0.778361
      pz      :     0.012525  p :     0.020647
      px      :     0.004339
      py      :     0.003784

 22 H s       :     0.779611  s :     0.779611
      pz      :     0.010005  p :     0.020648
      px      :     0.006810
      py      :     0.003832

 23 H s       :     0.781713  s :     0.781713
      pz      :     0.012605  p :     0.020640
      px      :     0.004557
      py      :     0.003479

 24 H s       :     0.791754  s :     0.791754
      pz      :     0.007768  p :     0.020534
      px      :     0.005677
      py      :     0.007089

 25 H s       :     0.798023  s :     0.798023
      pz      :     0.005250  p :     0.020127
      px      :     0.005242
      py      :     0.009635

 26 H s       :     0.797633  s :     0.797633
      pz      :     0.003748  p :     0.020028
      px      :     0.012961
      py      :     0.003318

 27 H s       :     0.798221  s :     0.798221
      pz      :     0.007468  p :     0.020144
      px      :     0.005499
      py      :     0.007178

 28 H s       :     0.781014  s :     0.781014
      pz      :     0.005100  p :     0.020279
      px      :     0.004953
      py      :     0.010226



                     *******************************
                     * LOEWDIN POPULATION ANALYSIS *
                     *******************************

----------------------
LOEWDIN ATOMIC CHARGES
----------------------
   0 O :    0.036124
   1 C :   -0.395442
   2 N :    0.081440
   3 O :    0.237465
   4 C :   -0.400331
   5 C :   -0.131759
   6 C :   -0.074803
   7 C :   -0.131756
   8 C :   -0.385859
   9 Br:    0.364254
  10 C :   -0.131904
  11 C :   -0.066781
  12 O :    0.063131
  13 C :   -0.132326
  14 C :   -0.087259
  15 C :   -0.134231
  16 C :   -0.127407
  17 C :   -0.134757
  18 C :   -0.100821
  19 H :    0.202672
  20 H :    0.166211
  21 H :    0.162555
  22 H :    0.162341
  23 H :    0.167375
  24 H :    0.161381
  25 H :    0.156733
  26 H :    0.156621
  27 H :    0.156729
  28 H :    0.160401

-------------------------------
LOEWDIN REDUCED ORBITAL CHARGES
-------------------------------
  0 O s       :     3.406264  s :     3.406264
      pz      :     1.462081  p :     4.487037
      px      :     1.625835
      py      :     1.399120
      dz2     :     0.019079  d :     0.064809
      dxz     :     0.017962
      dyz     :     0.016443
      dx2y2   :     0.005469
      dxy     :     0.005856
      f0      :     0.001103  f :     0.005767
      f+1     :     0.001201
      f-1     :     0.001319
      f+2     :     0.000860
      f-2     :     0.000961
      f+3     :     0.000146
      f-3     :     0.000177

  1 C s       :     2.743392  s :     2.743392
      pz      :     0.906258  p :     2.648087
      px      :     0.966566
      py      :     0.775263
      dz2     :     0.217199  d :     0.877122
      dxz     :     0.232847
      dyz     :     0.173076
      dx2y2   :     0.140132
      dxy     :     0.113867
      f0      :     0.022411  f :     0.126842
      f+1     :     0.022421
      f-1     :     0.019293
      f+2     :     0.024662
      f-2     :     0.016209
      f+3     :     0.009956
      f-3     :     0.011891

  2 N s       :     3.013410  s :     3.013410
      pz      :     1.202283  p :     3.623364
      px      :     0.911805
      py      :     1.509276
      dz2     :     0.056754  d :     0.257993
      dxz     :     0.066208
      dyz     :     0.017992
      dx2y2   :     0.059144
      dxy     :     0.057895
      f0      :     0.003255  f :     0.023793
      f+1     :     0.002622
      f-1     :     0.001701
      f+2     :     0.004412
      f-2     :     0.002319
      f+3     :     0.004671
      f-3     :     0.004813

  3 O s       :     3.317623  s :     3.317623
      pz      :     1.531870  p :     4.314292
      px      :     1.149060
      py      :     1.633361
      dz2     :     0.026888  d :     0.121973
      dxz     :     0.033137
      dyz     :     0.009165
      dx2y2   :     0.027392
      dxy     :     0.025390
      f0      :     0.001676  f :     0.008648
      f+1     :     0.001715
      f-1     :     0.000614
      f+2     :     0.001325
      f-2     :     0.000539
      f+3     :     0.001328
[...]
 26:    494.21   0.025804  130.40  0.016294  (-0.007958 -0.127328 -0.004216)
 27:    505.71   0.003215   16.25  0.001984  (-0.040852  0.006127 -0.016653)
 28:    538.67   0.008770   44.32  0.005080  (-0.043648 -0.049629  0.026689)
 29:    629.58   0.000064    0.32  0.000032  ( 0.005607  0.000552 -0.000358)
 30:    638.56   0.000637    3.22  0.000312  (-0.008902  0.008506  0.012646)
 31:    693.83   0.004646   23.48  0.002090  ( 0.041573  0.018413 -0.004733)
 32:    708.67   0.008159   41.23  0.003593  ( 0.012081  0.031167 -0.049753)
 33:    715.31   0.011774   59.50  0.005137  ( 0.008348  0.004599 -0.071034)
 34:    725.43   0.013391   67.67  0.005761  (-0.012173  0.026778  0.069967)
 35:    744.19   0.005345   27.01  0.002241  ( 0.020058  0.012595  0.040992)
 36:    778.64   0.011559   58.41  0.004632  (-0.000105 -0.055623  0.039223)
 37:    822.63   0.003927   19.85  0.001490  (-0.007674 -0.020620  0.031713)
 38:    864.86   0.000079    0.40  0.000029  ( 0.000041  0.004762 -0.002427)
 39:    876.69   0.000222    1.12  0.000079  (-0.008385 -0.002823  0.000873)
 40:    882.05   0.002080   10.51  0.000736  ( 0.000575 -0.026485  0.005842)
 41:    884.40   0.009965   50.36  0.003516  (-0.014287 -0.041842  0.039512)
 42:    931.05   0.007488   37.84  0.002510  ( 0.016943  0.046276  0.009011)
 43:    975.04   0.000967    4.89  0.000309  ( 0.006682  0.008487 -0.013884)
 44:   1011.51   0.000004    0.02  0.000001  (-0.000015  0.000880  0.000640)
 45:   1019.38   0.002315   11.70  0.000709  (-0.026589  0.000017  0.001316)
 46:   1019.57   0.004590   23.20  0.001405  ( 0.035714 -0.008475 -0.007593)
 47:   1020.89   0.018375   92.86  0.005617  ( 0.072097 -0.011599 -0.016858)
 48:   1022.87   0.019086   96.45  0.005823  ( 0.074117 -0.010482 -0.014818)
 49:   1045.13   0.000178    0.90  0.000053  ( 0.005245  0.005031  0.000508)
 50:   1052.19   0.005176   26.16  0.001535  ( 0.021326  0.023470  0.023010)
 51:   1063.23   0.017825   90.08  0.005232  (-0.060644  0.019031  0.034522)
 52:   1092.72   0.057146  288.79  0.016320  ( 0.116962 -0.002871 -0.051302)
 53:   1103.77   0.011642   58.83  0.003291  (-0.056892  0.005531 -0.004917)
 54:   1117.48   0.004149   20.97  0.001159  (-0.021283  0.025385  0.007823)
 55:   1135.92   0.000742    3.75  0.000204  ( 0.008761  0.008682  0.007187)
 56:   1174.87   0.000526    2.66  0.000140  ( 0.008137 -0.008531 -0.000802)
 57:   1196.02   0.002673   13.51  0.000698  ( 0.026294 -0.001650 -0.001859)
 58:   1200.64   0.013941   70.45  0.003623  ( 0.059745 -0.002983 -0.006713)
 59:   1216.78   0.018879   95.41  0.004842  ( 0.068143 -0.007360 -0.012007)
 60:   1277.33   0.131798  666.05  0.032199  (-0.172515  0.019548  0.045342)
 61:   1311.38   0.011627   58.76  0.002767  ( 0.019618  0.045670  0.017210)
 62:   1314.22   0.008142   41.15  0.001933  (-0.009206  0.042548 -0.006186)
 63:   1330.72   0.002083   10.53  0.000489  (-0.021194 -0.005133 -0.003606)
 64:   1331.85   0.000739    3.73  0.000173  ( 0.012910  0.000891  0.002370)
 65:   1358.51   0.000184    0.93  0.000042  (-0.005148  0.002084  0.003372)
 66:   1440.27   0.008486   42.89  0.001839  ( 0.026827 -0.020732 -0.026253)
 67:   1486.63   0.005790   29.26  0.001215  (-0.031863 -0.007153  0.012204)
 68:   1506.65   0.042101  212.76  0.008720  (-0.073794 -0.055194  0.015103)
 69:   1530.93   0.006214   31.40  0.001267  ( 0.032128  0.001351  0.015249)
 70:   1546.00   0.006424   32.46  0.001297  (-0.018385 -0.027693  0.013849)
 71:   1642.90   0.000223    1.13  0.000042  (-0.001284  0.002707  0.005773)
 72:   1657.84   0.014800   74.79  0.002786  (-0.050351  0.012480 -0.009739)
 73:   1657.94   0.031442  158.90  0.005918  ( 0.076852  0.002528  0.002364)
 74:   1675.07   0.004991   25.22  0.000930  ( 0.030044  0.004960  0.001578)
 75:   1765.96   0.129385  653.86  0.022864  (-0.090674  0.081650 -0.089305)
 76:   1840.78   0.109997  555.88  0.018648  (-0.077047 -0.074859 -0.084306)
 77:   3209.42   0.000003    0.01  0.000000  ( 0.000156  0.000398  0.000252)
 78:   3216.24   0.000406    2.05  0.000039  ( 0.004641 -0.004176  0.000613)
 79:   3222.07   0.000406    2.05  0.000039  (-0.004777 -0.004058 -0.000095)
 80:   3227.38   0.000252    1.27  0.000024  ( 0.004903  0.000211  0.000553)
 81:   3229.01   0.000628    3.17  0.000061  ( 0.001813 -0.007530  0.000846)
 82:   3231.88   0.000067    0.34  0.000006  ( 0.001503  0.001006  0.001784)
 83:   3233.88   0.000866    4.38  0.000084  ( 0.008839  0.002091  0.001043)
 84:   3240.09   0.000262    1.32  0.000025  ( 0.000822  0.003205  0.003780)
 85:   3246.38   0.000260    1.31  0.000025  ( 0.002332 -0.002820 -0.003409)
 86:   3566.83   0.027396  138.45  0.002397  ( 0.003668 -0.030723  0.037941)

* The epsilon (eps) is given for a Dirac delta lineshape.
** The dipole moment derivative (T) already includes vibrational overlap.

The first frequency considered to be a vibration is 6
The total number of vibrations considered is 81


--------------------------
THERMOCHEMISTRY AT 298.15K
--------------------------

Temperature         ...   298.15 K
Pressure            ...     1.00 atm
Total Mass          ...   320.14 AMU
Quasi RRHO          ...     True
Cut-Off Frequency   ...     1.00 cm^-1

Throughout the following assumptions are being made:
  (1) The electronic state is orbitally nondegenerate
  (2) There are no thermally accessible electronically excited states
  (3) Hindered rotations indicated by low frequency modes are not
      treated as such but are treated as vibrations and this may
      cause some error
  (4) All equations used are the standard statistical mechanics
      equations for an ideal gas
  (5) All vibrations are strictly harmonic

freq.      18.97  E(vib)   ...       0.57 
freq.      29.62  E(vib)   ...       0.55 
freq.      35.84  E(vib)   ...       0.54 
freq.      50.03  E(vib)   ...       0.52 
freq.      77.87  E(vib)   ...       0.49 
freq.      97.93  E(vib)   ...       0.46 
freq.     111.73  E(vib)   ...       0.45 
freq.     156.46  E(vib)   ...       0.40 
freq.     177.38  E(vib)   ...       0.37 
freq.     225.92  E(vib)   ...       0.33 
freq.     255.54  E(vib)   ...       0.30 
freq.     273.65  E(vib)   ...       0.28 
freq.     332.56  E(vib)   ...       0.24 
freq.     337.02  E(vib)   ...       0.24 
freq.     385.97  E(vib)   ...       0.20 
freq.     413.19  E(vib)   ...       0.19 
freq.     414.40  E(vib)   ...       0.19 
freq.     429.07  E(vib)   ...       0.18 
freq.     457.26  E(vib)   ...       0.16 
freq.     488.86  E(vib)   ...       0.15 
freq.     494.21  E(vib)   ...       0.14 
freq.     505.71  E(vib)   ...       0.14 
freq.     538.67  E(vib)   ...       0.12 
freq.     629.58  E(vib)   ...       0.09 
freq.     638.56  E(vib)   ...       0.09 
freq.     693.83  E(vib)   ...       0.07 
freq.     708.67  E(vib)   ...       0.07 
freq.     715.31  E(vib)   ...       0.07 
freq.     725.43  E(vib)   ...       0.06 
freq.     744.19  E(vib)   ...       0.06 
freq.     778.64  E(vib)   ...       0.05 
freq.     822.63  E(vib)   ...       0.05 
freq.     864.86  E(vib)   ...       0.04 
freq.     876.69  E(vib)   ...       0.04 
freq.     882.05  E(vib)   ...       0.04 
freq.     884.40  E(vib)   ...       0.04 
freq.     931.05  E(vib)   ...       0.03 
freq.     975.04  E(vib)   ...       0.03 
freq.    1011.51  E(vib)   ...       0.02 
freq.    1019.38  E(vib)   ...       0.02 
freq.    1019.57  E(vib)   ...       0.02 
freq.    1020.89  E(vib)   ...       0.02 
freq.    1022.87  E(vib)   ...       0.02 
freq.    1045.13  E(vib)   ...       0.02 
freq.    1052.19  E(vib)   ...       0.02 
freq.    1063.23  E(vib)   ...       0.02 
freq.    1092.72  E(vib)   ...       0.02 
freq.    1103.77  E(vib)   ...       0.02 
freq.    1117.48  E(vib)   ...       0.01 
freq.    1135.92  E(vib)   ...       0.01 
freq.    1174.87  E(vib)   ...       0.01 
freq.    1196.02  E(vib)   ...       0.01 
freq.    1200.64  E(vib)   ...       0.01 
freq.    1216.78  E(vib)   ...       0.01 
freq.    1277.33  E(vib)   ...       0.01 
freq.    1311.38  E(vib)   ...       0.01 
freq.    1314.22  E(vib)   ...       0.01 
freq.    1330.72  E(vib)   ...       0.01 
freq.    1331.85  E(vib)   ...       0.01 
freq.    1358.51  E(vib)   ...       0.01 
freq.    1440.27  E(vib)   ...       0.00 
freq.    1486.63  E(vib)   ...       0.00 
freq.    1506.65  E(vib)   ...       0.00 
freq.    1530.93  E(vib)   ...       0.00 
freq.    1546.00  E(vib)   ...       0.00 
freq.    1642.90  E(vib)   ...       0.00 
freq.    1657.84  E(vib)   ...       0.00 
freq.    1657.94  E(vib)   ...       0.00 
freq.    1675.07  E(vib)   ...       0.00 
freq.    1765.96  E(vib)   ...       0.00 
freq.    1840.78  E(vib)   ...       0.00 
freq.    3209.42  E(vib)   ...       0.00 
freq.    3216.24  E(vib)   ...       0.00 
freq.    3222.07  E(vib)   ...       0.00 
freq.    3227.38  E(vib)   ...       0.00 
freq.    3229.01  E(vib)   ...       0.00 
freq.    3231.88  E(vib)   ...       0.00 
freq.    3233.88  E(vib)   ...       0.00 
freq.    3240.09  E(vib)   ...       0.00 
freq.    3246.38  E(vib)   ...       0.00 
freq.    3566.83  E(vib)   ...       0.00 

------------
INNER ENERGY
------------

The inner energy is: U= E(el) + E(ZPE) + E(vib) + E(rot) + E(trans)
    E(el)   - is the total energy from the electronic structure calculation
              = E(kin-el) + E(nuc-el) + E(el-el) + E(nuc-nuc)
    E(ZPE)  - the the zero temperature vibrational energy from the frequency calculation
    E(vib)  - the the finite temperature correction to E(ZPE) due to population
              of excited vibrational states
    E(rot)  - is the rotational thermal energy
    E(trans)- is the translational thermal energy

Summary of contributions to the inner energy U:
Electronic energy                ...  -3394.11266341 Eh
Zero point energy                ...      0.21407921 Eh     134.34 kcal/mol
Thermal vibrational correction   ...      0.01330182 Eh       8.35 kcal/mol
Thermal rotational correction    ...      0.00141627 Eh       0.89 kcal/mol
Thermal translational correction ...      0.00141627 Eh       0.89 kcal/mol
-----------------------------------------------------------------------
Total thermal energy                  -3393.88244984 Eh


Summary of corrections to the electronic energy:
(perhaps to be used in another calculation)
Total thermal correction                  0.01613436 Eh      10.12 kcal/mol
Non-thermal (ZPE) correction              0.21407921 Eh     134.34 kcal/mol
-----------------------------------------------------------------------
Total correction                          0.23021357 Eh     144.46 kcal/mol


--------
ENTHALPY
--------

The enthalpy is H = U + kB*T
                kB is Boltzmann's constant
Total thermal energy              ...  -3393.88244984 Eh 
Thermal Enthalpy correction       ...      0.00094421 Eh       0.59 kcal/mol
-----------------------------------------------------------------------
Total Enthalpy                    ...  -3393.88150563 Eh


Note: Only C1 symmetry has been detected, increase convergence thresholds 
      if your molecule has a higher symmetry. Symmetry factor of 1.0 is   
      used for the rotational entropy correction. 
 

Note: Rotational entropy computed according to Herzberg 
Infrared and Raman Spectra, Chapter V,1, Van Nostrand Reinhold, 1945 
Point Group:  C1, Symmetry Number:   1  
Rotational constants in cm-1:     0.053539     0.002678     0.002651 

Vibrational entropy computed according to the QRRHO of S. Grimme
Chem.Eur.J. 2012 18 9955 using a reference frequency of 100.0 cm-1


-------
ENTROPY
-------

The entropy contributions are T*S = T*(S(el)+S(vib)+S(rot)+S(trans))
     S(el)   - electronic entropy
     S(vib)  - vibrational entropy
     S(rot)  - rotational entropy
     S(trans)- translational entropy
The entropies will be listed as multiplied by the temperature to get
units of energy

Electronic entropy                ...      0.00000000 Eh      0.00 kcal/mol
Vibrational entropy               ...      0.02379921 Eh     14.93 kcal/mol
Rotational entropy                ...      0.01648961 Eh     10.35 kcal/mol
Translational entropy             ...      0.02051919 Eh     12.88 kcal/mol
-----------------------------------------------------------------------
Final entropy term                ...      0.06080801 Eh     38.16 kcal/mol

In case the symmetry of your molecule has not been determined correctly
or in case you have a reason to use a different symmetry number we print 
out the resulting rotational entropy values for sn=1,12:

 non-linear molecules -----------------------------------
|  sn= 1 | S(rot)=       0.01648961 Eh     10.35 kcal/mol|
|  sn= 2 | S(rot)=       0.01583515 Eh      9.94 kcal/mol|
|  sn= 3 | S(rot)=       0.01545232 Eh      9.70 kcal/mol|
|  sn= 4 | S(rot)=       0.01518070 Eh      9.53 kcal/mol|
|  sn= 5 | S(rot)=       0.01497001 Eh      9.39 kcal/mol|
|  sn= 6 | S(rot)=       0.01479786 Eh      9.29 kcal/mol|
|  sn= 7 | S(rot)=       0.01465232 Eh      9.19 kcal/mol|
|  sn= 8 | S(rot)=       0.01452624 Eh      9.12 kcal/mol|
|  sn= 9 | S(rot)=       0.01441503 Eh      9.05 kcal/mol|
|  sn=10 | S(rot)=       0.01431555 Eh      8.98 kcal/mol|
|  sn=11 | S(rot)=       0.01422556 Eh      8.93 kcal/mol|
|  sn=12 | S(rot)=       0.01414341 Eh      8.88 kcal/mol|
 linear molecules ---------------------------------------
|  Dinfh | S(rot)=       0.01092753 Eh      6.86 kcal/mol|
|  Cinfv | S(rot)=       0.01158199 Eh      7.27 kcal/mol|
 --------------------------------------------------------


-------------------
GIBBS FREE ENERGY
-------------------

The Gibbs free energy is G = H - T*S

Total enthalpy                    ...  -3393.88150563 Eh 
Total entropy correction          ...     -0.06080801 Eh    -38.16 kcal/mol
-----------------------------------------------------------------------
Final Gibbs free energy         ...  -3393.94231364 Eh

For completeness - the Gibbs free energy minus the electronic energy
G-E(el)                           ...      0.17034977 Eh    106.90 kcal/mol


Maximum memory used throughout the entire PROP-calculation: 309.0 MB

--------------------------------
SUGGESTED CITATIONS FOR THIS RUN
--------------------------------

Below you find a list of papers that are relevant to this ORCA run
We neither can nor want to force you to cite these papers, but we appreciate if you do
You receive ORCA, which is the product of decades of hard work by many enthusiastic individuals, for free
The only thing we kindly ask in return is that you cite our papers,
We deeply appreciate it, if you show your appreciation for ORCA by not just citing the generic ORCA reference.

Please note that relegating all ORCA citations to the supporting information does *not* help us.
SI sections are not indexed - citations you put there will not count into any citation statistics
But we need these citations in order to attract the funding resources that allow us to do what we are doing

Therefore, if you are a happy ORCA user, please consider citing a few of the papers listed below in the main body of your paper

In addition to the list printed below, the program has created the file molecule_neutral_opt_freq.bibtex that contains the list in bibtex format
You can import this file easily into all common literature databanks and citation aid programs


List of essential papers. We consider these as the minimum necessary citations

  1. Neese,F.
     Software update: the ORCA program system, version 5.0
     WIRES Comput. Molec. Sci., 2022 12(1)e1606
     doi.org/10.1002/wcms.1606

List of papers to cite with high priority. The work reported in these papers was absolutely
necessary for this run to complete.
Our perspective: the developers of density functionals and basis sets usually get cited in chemistry papers
Good! But without the algorithms to do something with them, the functionals or basis sets would not do anything.
Hence, in our opinion, the algorithm design and method developments papers are equally worthy of getting cited

  1. Neese,F.
     An improvement of the resolution of the identity approximation for the formation of the Coulomb matrix
     J. Comp. Chem., 2003 24(14)1740-1747
     doi.org/10.1002/jcc.10318
  2. Neese,F.; Wennmohs,F.; Hansen,A.; Becker,U.
     Efficient, approximate and parallel Hartree-Fock and hybrid DFT calculations. A 'chain-of-spheres' algorithm for the Hartree-Fock exchange
     Chem. Phys., 2009 356(1-3)98-109
     doi.org/10.1016/j.chemphys.2008.10.036
  3. Bykov,D.; Petrenko,T.; Izsak,R.; Kossmann,S.; Becker,U.; Valeev,E.; Neese,F.
     Efficient implementation of the analytic second derivatives of Hartree-Fock and hybrid DFT energies: a detailed analysis of different approximations
     Molec. Phys., 2015 113 1961-1977
     doi.org/10.1080/00268976.2015.1025114
  4. Garcia-Rates,M.; Neese,F.
     Efficient implementation of the analytical second derivatives of hartree-fock and hybrid DFT energies within the framework of the conductor-like polarizable continuum model
     J. Comput. Chem., 2019 40 1816-1828
     doi.org/10.1002/jcc.25833
  5. Garcia-Rates,M.; Neese,F.
     Effect of the Solute Cavity on the Solvation Energy and its Derivatives within the Framework of the Gaussian Charge Scheme
     J. Comput. Chem., 2020 41 922-939
     doi.org/10.1002/jcc.26139
  6. Helmich-Paris,B.; de Souza,B.; Neese,F.; Izsák,R.
     An improved chain of spheres for exchange algorithm
     J. Chem. Phys., 2021 155 104109
     doi.org/doi: 10.1063/5.0058766.
  7. Neese,F.
     The SHARK Integral Generation and Digestion System
     J. Comp. Chem., 2022  1-16
     doi.org/10.1002/jcc.26942

List of suggested additional citations. These are papers that are important in the 'surrounding' of 
of this run, or papers that preceded the highly important papers. If you like your results we are grateful for a citation.

  1. Izsak,R.; Neese,F.
     An overlap fitted chain of spheres exchange method
     J. Chem. Phys., 2011 135 144105
     doi.org/10.1063/1.3646921
  2. Izsak,R.; Hansen,A.; Neese,F.
     The resolution of identity and chain of spheres approximations for the LPNO-CCSD singles Fock term
     Molec. Phys., 2012 110 2413-2417
     doi.org/10.1080/00268976.2012.687466
  3. Neese,F.
     The ORCA program system
     WIRES Comput. Molec. Sci., 2012 2(1)73-78
     doi.org/10.1002/wcms.81
  4. Izsak,R.; Neese,F.; Klopper,W.
     Robust fitting techniques in the chain of spheres approximation to the Fock exchange: The role of the complementary space
     J. Chem. Phys., 2013 139 
     doi.org/10.1063/1.4819264
  5. Neese,F.
     Software update: the ORCA program system, version 4.0
     WIRES Comput. Molec. Sci., 2018 8(1)1-6
     doi.org/10.1002/wcms.1327
  6. Neese,F.; Wennmohs,F.; Becker,U.; Riplinger,C.
     The ORCA quantum chemistry program package
     J. Chem. Phys., 2020 152 Art. No. L224108
     doi.org/10.1063/5.0004608

List of optional additional citations

  1. Neese,F.
     Approximate second-order SCF convergence for spin unrestricted wavefunctions
     Chem. Phys. Lett., 2000 325(1-3)93-98
     doi.org/10.1016/s0009-2614(00)00662-x

Timings for individual modules:

Sum of individual times          ...     6224.065 sec (= 103.734 min)
Startup calculation              ...      168.528 sec (=   2.809 min)   2.7 %
SCF iterations                   ...     2766.873 sec (=  46.115 min)  44.5 %
Property integrals               ...      609.206 sec (=  10.153 min)   9.8 %
SCF Response                     ...     1104.979 sec (=  18.416 min)  17.8 %
Property calculations            ...      519.714 sec (=   8.662 min)   8.4 %
SCF Gradient evaluation          ...     1053.761 sec (=  17.563 min)  16.9 %
Geometry relaxation              ...        1.004 sec (=   0.017 min)   0.0 %
                             ****ORCA TERMINATED NORMALLY****
TOTAL RUN TIME: 0 days 1 hours 43 minutes 54 seconds 893 msec
