
                                 *****************
                                 * O   R   C   A *
                                 *****************

                                            #,                                       
                                            ###                                      
                                            ####                                     
                                            #####                                    
                                            ######                                   
                                           ########,                                 
                                     ,,################,,,,,                         
                               ,,#################################,,                 
                          ,,##########################################,,             
                       ,#########################################, ''#####,          
                    ,#############################################,,   '####,        
                  ,##################################################,,,,####,       
                ,###########''''           ''''###############################       
              ,#####''   ,,,,##########,,,,          '''####'''          '####       
            ,##' ,,,,###########################,,,                        '##       
           ' ,,###''''                  '''############,,,                           
         ,,##''                                '''############,,,,        ,,,,,,###''
      ,#''                                            '''#######################'''  
     '                                                          ''''####''''         
             ,#######,   #######,   ,#######,      ##                                
            ,#'     '#,  ##    ##  ,#'     '#,    #''#        ,####,   ,####,        
            ##       ##  ##   ,#'  ##            #'  '#       #'       #'  '#        
            ##       ##  #######   ##           ,######,      #####,   #    #        
            '#,     ,#'  ##    ##  '#,     ,#' ,#      #,     #,   #   #,  ,#        
             '#######'   ##     ##  '#######'  #'      '#     '####' # '####'        



                #########################################################
                #                        -***-                          #
                #          Department of theory and spectroscopy        #
                #                                                       #
                #                      Frank Neese                      #
                #                                                       #
                #     Directorship, Architecture, Infrastructure        #
                #                    SHARK, DRIVERS                     #
                #        Core code/Algorithms in most modules           #
                #                                                       #
                #        Max Planck Institute fuer Kohlenforschung      #
                #                Kaiser Wilhelm Platz 1                 #
                #                 D-45470 Muelheim/Ruhr                 #
                #                      Germany                          #
                #                                                       #
                #                  All rights reserved                  #
                #                        -***-                          #
                #########################################################


                         Program Version 6.0.1  -  RELEASE   -


 With contributions from (in alphabetic order):
[Max-Planck-Institut fuer Kohlenforschung]                               
  Daniel Aravena         : Magnetic Suceptibility                        
  Michael Atanasov       : Ab Initio Ligand Field Theory (pilot matlab implementation)
  Alexander A. Auer      : GIAO ZORA, VPT2 properties, NMR spectrum      
  Ute Becker             : All parallelization in ORCA, NUMFREQ, NUMCALC 
  Giovanni Bistoni       : ED, misc. LED, open-shell LED, HFLD           
  Martin Brehm           : Molecular dynamics                            
  Dmytro Bykov           : pre 5.0 version of the SCF Hessian            
  Marcos Casanova-Páez   : Triplet and SCS-CIS(D). UHF-(DLPNO)-IP/EA/STEOM-CCSD. UHF-CVS-IP/STEOM-CCSD   
  Vijay G. Chilkuri      : MRCI spin determinant printing, contributions to CSF-ICE 
  Pauline Colinet        : FMM embedding                                 
  Dipayan Datta          : RHF DLPNO-CCSD density                        
  Achintya Kumar Dutta   : EOM-CC, STEOM-CC                              
  Nicolas Foglia         : Exact transition moments, OPA infrastructure, MCD improvements    
  Dmitry Ganyushin       : Spin-Orbit,Spin-Spin,Magnetic field MRCI      
  Miquel Garcia-Rates    : C-PCM and meta-GGA Hessian, CCSD/C-PCM, Gaussian charge scheme 
  Tiago L. C. Gouveia    : GS-ROHF, GS-ROCIS                             
  Yang Guo               : DLPNO-NEVPT2, F12-NEVPT2, CIM, IAO-localization        
  Andreas Hansen         : Spin unrestricted coupled pair/coupled cluster methods 
  Ingolf Harden          : AUTO-CI MPn and infrastructure                
  Benjamin Helmich-Paris : MC-RPA, TRAH-(SCF,CASSCF), AVAS, COSX integrals, SCF dyn. polar. 
  Lee Huntington         : MR-EOM, pCC                                   
  Robert Izsak           : Overlap fitted RIJCOSX, COSX-SCS-MP3, EOM     
  Riya Kayal             : Wick's Theorem for AUTO-CI, AUTO-CI UHF-CCSDT 
  Emily Kempfer          : AUTO-CI, RHF CISDT and CCSDT                  
  Christian Kollmar      : KDIIS, OOCD, Brueckner-CCSD(T), CCSD density, CASPT2, CASPT2-K, improved NEVPT2 
  Axel Koslowski         : Symmetry handling                             
  Simone Kossmann        : meta-GGA functionals, TD-DFT gradient, OOMP2, (MP2 Hessian; deprecated post 5.0) 
  Lucas Lang             : DCDCAS                                        
  Marvin Lechner         : AUTO-CI (C++ implementation), FIC-MRCC        
  Spencer Leger          : CASSCF response                               
  Dagmar Lenk            : GEPOL surface, SMD, ORCA-2-JSON               
  Dimitrios Liakos       : Extrapolation schemes; Compound Job, initial MDCI parallelization 
  Dimitrios Manganas     : Further ROCIS development; embedding schemes. LFT, Crystal Embedding 
  Dimitrios Pantazis     : SARC Basis sets                               
  Anastasios Papadopoulos: AUTO-CI, single reference methods and gradients 
  Taras Petrenko         : pre 6.0 DFT Hessian and TD-DFT gradient, (ASA, deprecated), ECA, 1-Electron XAS/XES, NRVS 
  Peter Pinski           : DLPNO-MP2, DLPNO-MP2 Gradient                 
  Christoph Reimann      : Effective Core Potentials                     
  Marius Retegan         : Local ZFS, SOC                                
  Christoph Riplinger    : Optimizer, TS searches, QM/MM, DLPNO-CCSD(T), (RO)-DLPNO pert. Triples 
  Michael Roemelt        : Original ROCIS implementation                 
  Masaaki Saitow         : Open-shell DLPNO-CCSD energy and density      
  Barbara Sandhoefer     : DKH picture change effects                    
  Kantharuban Sivalingam : CASSCF convergence/infrastructure, NEVPT2 and variants, FIC-MRCI 
  Bernardo de Souza      : ESD, SOC TD-DFT                               
  Georgi L. Stoychev     : AutoAux, RI-MP2 NMR, DLPNO-MP2 response, X2C  
  Van Anh Tran           : RI-MP2 g-tensors                              
  Willem Van den Heuvel  : Paramagnetic NMR                              
  Zikuan Wang            : NOTCH, Electric field optimization            
  Frank Wennmohs         : Technical directorship and infrastructure     
  Hang Xu                : AUTO-CI-Response properties                   
                                                                         
[FACCTs GmbH]                                                            
  Markus Bursch, Miquel Garcia-Rates, Christoph Riplinger, Bernardo de Souza, Georgi L. Stoychev 
                                                                 
  APM, Basis sets (HGBS, AHGBS, def-TZVP (Ac-Lr), def2-XVPD (La-Lu)), CI-OPT, improved COSX, DLPNO-Multilevel,           
  DOCKER, DRACO, updates on ESD, GOAT, IRC, LR-CPCM, MBIS, meta-GGA TD-DFT gradient, ML-optimized integration grids, 
  MM, NACMEs, nearIR, NEB, NEB-TS, NL-DFT gradient (VV10), 2- and 3-layer-ONIOM, interface openCOSMO-RS, QMMM,   
  Crystal-QMMM, SF, symmetry and pop. for TD-DFT, r2SCAN hybrids, SOLVATOR                                   
                                                                         
[Other institutions]                                                     
  V. Asgeirsson          : NEB                                           
  Christoph Bannwarth    : sTDA-DFT, sTD-DFT, PBEh-3c, B97-3c, D3        
  Sebastian Ehlert       : rSCAN, r2SCAN, r2SCAN-3c, D4, dhf basis sets  
  Marvin Friede          : D4 for Fr, Ra, Ac-Lr                          
  Lars Goerigk           : TD-DFT with DH, B97 family of functionals     
  Stefan Grimme          : VdW corrections, initial TS optimization, DFT functionals, gCP, sTDA/sTD-DF 
  Waldemar Hujo          : DFT-NL                                        
  H. Jonsson             : NEB                                           
  Holger Kruse           : gCP                                           
  Marcel Mueller         : wB97X-3c, vDZP basis set                      
  Hagen Neugebauer       : wr2SCAN                                       
  Tobias Risthaus        : range-separated hybrid DFT                    
  Lukas Wittmann         : regularized MP2, r2SCAN double-hybrids, wr2SCAN        
                                                                         
We gratefully acknowledge several colleagues who have allowed us to      
interface, adapt or use parts of their codes:                            
  Ed Valeev, F. Pavosevic, A. Kumar             : LibInt (2-el integral package), F12 methods 
  Garnet Chan, S. Sharma, J. Yang, R. Olivares  : DMRG                   
  Ulf Ekstrom                                   : XCFun DFT Library      
  Mihaly Kallay                                 : mrcc  (arbitrary order and MRCC methods)
  Frank Weinhold                                : gennbo (NPA and NBO analysis)           
  Simon Mueller                                 : openCOSMO-RS                            
  Christopher J. Cramer and Donald G. Truhlar   : smd solvation model                     
  S Lehtola, MJT Oliveira, MAL Marques          : LibXC Library                           
  Liviu Ungur et al                             : ANISO software                          


 Your calculation uses the libint2 library for the computation of 2-el integrals
 For citations please refer to: http://libint.valeyev.net

 Your ORCA version has been built with support for libXC version: 6.2.2
 For citations please refer to: https://libxc.gitlab.io

 This ORCA versions uses:
   CBLAS   interface :  Fast vector & matrix operations
   LAPACKE interface :  Fast linear algebra routines
   Shared memory     :  Shared parallel matrices


XCFun DFT library Copyright 2009-2010 Ulf Ekstrom and contributors.
See http://admol.org/xcfun for more information.
This is free software; see the source code for copying conditions.
There is ABSOLUTELY NO WARRANTY; not even for MERCHANTABILITY or FITNESS FOR A PARTICULAR PURPOSE.
For details see the documentation.
Scientific users of this library should cite U. Ekstrom, L. Visscher, R. Bast, A. J. Thorvaldsen and K. Ruud;
J.Chem.Theor.Comp. 2010, DOI: 10.1021/ct100117s
XCFun Version 0.99 

Warning: RI is on but no J-basis has been assigned. Assigning Def2/J (nothing to worry about!)
================================================================================

----- Orbital basis set information -----
Your calculation utilizes the basis: def2-TZVP
   F. Weigend and R. Ahlrichs, Phys. Chem. Chem. Phys. 7, 3297 (2005).

----- AuxJ basis set information -----
Your calculation utilizes the auxiliary basis: def2/J
   F. Weigend, Phys. Chem. Chem. Phys. 8, 1057 (2006).

================================================================================
                                        WARNINGS
                       Please study these warnings very carefully!
================================================================================


WARNING: your system is open-shell and RHF/RKS was chosen
  ===> : WILL SWITCH to UHF/UKS

WARNING: Functional chosen is sensitive to the integration grid.
         DEFGRID3 seems to be a minimum grid for robust results!

WARNING: Geometry Optimization
  ===> : Switching off AutoStart
         For restart on a previous wavefunction, please use MOREAD

================================================================================
                                       INPUT FILE
================================================================================
NAME = molecule_anion_opt_freq.inp
|  1> ! M062X TightSCF Def2-TZVP Opt Freq SlowConv XYZFile CPCM(methanol)

|  2> %pal nprocs 16 end

|  3> * xyz -1 2

|  4>   O           0.62893089084655      0.99699469684890     -1.12806101986277

|  5>   C           1.27340217463540      0.13760941926848     -0.56508172590544

|  6>   N           0.68794262945635     -1.00788197234636     -0.07816445554599

|  7>   O          -0.68846871334254     -1.03883362795477     -0.12046829499522

|  8>   C          -1.29491921709911     -0.20567436179222      0.78096005800335

|  9>   C          -2.76554068233527     -0.19655876247450      0.60270232633091

| 10>   C          -3.39097084256660     -0.89608237835550     -0.42661393514177

| 11>   C          -4.76973898859650     -0.84789764446759     -0.55698204571087

| 12>   C          -5.50444850246307     -0.09753490705210      0.34952127649023

| 13>   Br         -7.38928029007120     -0.02952480338862      0.17270985537300

| 14>   C          -4.89775811853722      0.60542628699571      1.38120726425641

| 15>   C          -3.51992871171059      0.55160204036218      1.50276898617832

| 16>   O          -0.68167735982800      0.40876153340204      1.60404205328787

| 17>   C           2.75228500824003      0.19853816427873     -0.38478858810409

| 18>   C           3.34942422622349      1.45667623152742     -0.39062441254266

| 19>   C           4.72044672811767      1.57238198579932     -0.22449820472763

| 20>   C           5.49905899288035      0.43155844495262     -0.06382736843852

| 21>   C           4.90589404508948     -0.82492062327245     -0.06901708094893

| 22>   C           3.53248552232195     -0.94507915200982     -0.22647521170511

| 23>   H           1.06395168543036     -1.45044737056227      0.75261837279645

| 24>   H          -2.80891047488279     -1.47578439297306     -1.12911967466518

| 25>   H          -5.26518012319769     -1.38444910335826     -1.35415904871155

| 26>   H          -5.49113691896293      1.18482751470095      2.07474659948259

| 27>   H          -3.02183796994757      1.09048441804215      2.29781822279776

| 28>   H           2.72970358463260      2.33457430195461     -0.51859245443697

| 29>   H           5.18296946089864      2.55081323841606     -0.22096007957623

| 30>   H           6.57059347958462      0.52216861444497      0.06077772761116

| 31>   H           5.51336138662580     -1.71361118092834      0.04145367236677

| 32>   H           3.07934709855779     -1.92813662005831     -0.25141333395591

| 33> *

| 34> 
| 35>                          ****END OF INPUT****
================================================================================

                       *****************************
                       * Geometry Optimization Run *
                       *****************************

Geometry optimization settings:
Update method            Update   .... BFGS
Choice of coordinates    CoordSys .... (2022) Redundant Internals
Initial Hessian          InHess   .... Almloef's Model
Max. no of cycles        MaxIter  .... 87

Convergence Tolerances:
Energy Change            TolE     ....  5.0000e-06 Eh
Max. Gradient            TolMAXG  ....  3.0000e-04 Eh/bohr
RMS Gradient             TolRMSG  ....  1.0000e-04 Eh/bohr
Max. Displacement        TolMAXD  ....  4.0000e-03 bohr
RMS Displacement         TolRMSD  ....  2.0000e-03 bohr
Strict Convergence                .... False

------------------------------------------------------------------------------
                        ORCA OPTIMIZATION COORDINATE SETUP
------------------------------------------------------------------------------

The optimization will be done in redundant internal coordinates (2022)
Making redundant internal coordinates   ...  (2022 redundants) done
Evaluating the initial hessian          ...  (Almloef) done
Evaluating the coordinates              ...  done
Calculating the B-matrix                .... done
Calculating the G-matrix                .... done
Diagonalizing the G-matrix              .... done
Small eigenvalue found = 2.512e-03
Small eigenvalue found = 4.817e-03
Small eigenvalue found = 1.468e-02
Small eigenvalue found = 1.683e-02
The first mode is                       ....   59
The number of degrees of freedom        ....   81

    -----------------------------------------------------------------
                    Redundant Internal Coordinates


    -----------------------------------------------------------------
         Definition                    Initial Value    Approx d2E/dq
    -----------------------------------------------------------------
      1. B(C   1,O   0)                  1.2128         1.073052   
      2. B(N   2,C   1)                  1.3755         0.590212   
      3. B(O   3,N   2)                  1.3774         0.524929   
      4. B(C   4,O   3)                  1.3691         0.604194   
      5. B(C   5,C   4)                  1.4814         0.446574   
      6. B(C   6,C   5)                  1.3928         0.618324   
      7. B(C   7,C   6)                  1.3858         0.634614   
      8. B(C   8,C   7)                  1.3873         0.631033   
      9. B(Br  9,C   8)                  1.8943         0.329313   
     10. B(C  10,C   8)                  1.3880         0.629354   
     11. B(C  11,C  10)                  1.3842         0.638185   
     12. B(C  11,C   5)                  1.3925         0.619158   
     13. B(O  12,C   4)                  1.1963         1.140145   
     14. B(C  13,C   1)                  1.4911         0.430998   
     15. B(C  14,C  13)                  1.3927         0.618705   
     16. B(C  15,C  14)                  1.3859         0.634304   
     17. B(C  16,C  15)                  1.3905         0.623617   
     18. B(C  17,C  16)                  1.3895         0.626027   
     19. B(C  18,C  17)                  1.3876         0.630289   
     20. B(C  18,C  13)                  1.3934         0.616982   
     21. B(H  19,N   2)                  1.0136         0.426975   
     22. B(H  20,C   6)                  1.0809         0.372330   
     23. B(H  21,C   7)                  1.0811         0.372028   
     24. B(H  22,C  10)                  1.0811         0.372053   
     25. B(H  23,C  11)                  1.0819         0.370923   
     26. B(H  24,C  14)                  1.0822         0.370582   
     27. B(H  25,C  15)                  1.0823         0.370498   
     28. B(H  26,C  16)                  1.0826         0.370086   
     29. B(H  27,C  17)                  1.0821         0.370672   
     30. B(H  28,C  18)                  1.0828         0.369813   
     31. A(O   0,C   1,C  13)          123.6576         0.445855   
     32. A(N   2,C   1,C  13)          114.4173         0.400696   
     33. A(O   0,C   1,N   2)          121.8879         0.469019   
     34. A(O   3,N   2,H  19)          112.7086         0.345742   
     35. A(C   1,N   2,O   3)          115.6687         0.409526   
     36. A(C   1,N   2,H  19)          119.7258         0.354876   
     37. A(N   2,O   3,C   4)          114.1251         0.411229   
     38. A(C   5,C   4,O  12)          126.0524         0.453706   
     39. A(O   3,C   4,C   5)          111.3608         0.404880   
     40. A(O   3,C   4,O  12)          122.5812         0.476319   
     41. A(C   6,C   5,C  11)          120.2820         0.433749   
     42. A(C   4,C   5,C   6)          122.1134         0.409172   
     43. A(C   4,C   5,C  11)          117.6031         0.409270   
     44. A(C   7,C   6,H  20)          119.5565         0.356317   
     45. A(C   5,C   6,C   7)          119.9227         0.435678   
     46. A(C   5,C   6,H  20)          120.5205         0.354749   
     47. A(C   6,C   7,H  21)          120.5349         0.356268   
     48. A(C   6,C   7,C   8)          118.9641         0.437278   
     49. A(C   8,C   7,H  21)          120.5007         0.355926   
     50. A(Br  9,C   8,C  10)          119.0840         0.414533   
     51. A(C   7,C   8,Br  9)          119.0369         0.414730   
     52. A(C   7,C   8,C  10)          121.8791         0.436623   
     53. A(C   8,C  10,C  11)          118.7279         0.437510   
     54. A(C  11,C  10,H  22)          120.7188         0.356612   
     55. A(C   8,C  10,H  22)          120.5532         0.355769   
     56. A(C   5,C  11,C  10)          120.2243         0.436224   
     57. A(C  10,C  11,H  23)          120.2256         0.356428   
     58. A(C   5,C  11,H  23)          119.5501         0.354602   
     59. A(C  14,C  13,C  18)          120.1220         0.433522   
     60. A(C   1,C  13,C  18)          122.3803         0.406454   
     61. A(C   1,C  13,C  14)          117.4953         0.406654   
     62. A(C  13,C  14,C  15)          119.9402         0.435688   
     63. A(C  15,C  14,H  24)          120.8611         0.356003   
     64. A(C  13,C  14,H  24)          119.1972         0.354503   
     65. A(C  14,C  15,C  16)          119.9532         0.436309   
     66. A(C  16,C  15,H  25)          120.1355         0.354965   
     67. A(C  14,C  15,H  25)          119.9112         0.355990   
     68. A(C  15,C  16,C  17)          120.1613         0.435278   
     69. A(C  17,C  16,H  26)          119.9124         0.355130   
     70. A(C  15,C  16,H  26)          119.9256         0.354898   
     71. A(C  16,C  17,C  18)          120.0834         0.436113   
     72. A(C  18,C  17,H  27)          119.7415         0.355634   
     73. A(C  16,C  17,H  27)          120.1732         0.355225   
     74. A(C  13,C  18,C  17)          119.7360         0.434972   
     75. A(C  17,C  18,H  28)          119.6996         0.355494   
     76. A(C  13,C  18,H  28)          120.5446         0.354210   
     77. D(O   3,N   2,C   1,C  13)    174.3220         0.028005   
     78. D(H  19,N   2,C   1,O   0)   -147.9612         0.028005   
     79. D(O   3,N   2,C   1,O   0)     -7.8195         0.028005   
     80. D(H  19,N   2,C   1,C  13)     34.1804         0.028005   
     81. D(C   4,O   3,N   2,H  19)     71.4806         0.023178   
     82. D(C   4,O   3,N   2,C   1)    -71.4110         0.023178   
     83. D(O  12,C   4,O   3,N   2)     -5.8462         0.026686   
     84. D(C   5,C   4,O   3,N   2)    174.9624         0.026686   
     85. D(C  11,C   5,C   4,O  12)     -2.6843         0.013598   
     86. D(C  11,C   5,C   4,O   3)    176.4730         0.013598   
     87. D(C   6,C   5,C   4,O   3)     -3.9760         0.013598   
     88. D(C   6,C   5,C   4,O  12)    176.8667         0.013598   
     89. D(H  20,C   6,C   5,C   4)      0.2868         0.026447   
     90. D(C   7,C   6,C   5,C   4)   -179.5206         0.026447   
     91. D(C   7,C   6,C   5,C  11)      0.0187         0.026447   
     92. D(H  20,C   6,C   5,C  11)    179.8261         0.026447   
     93. D(H  21,C   7,C   6,H  20)     -0.0084         0.027950   
     94. D(H  21,C   7,C   6,C   5)    179.8009         0.027950   
     95. D(C   8,C   7,C   6,H  20)   -179.8472         0.027950   
     96. D(C   8,C   7,C   6,C   5)     -0.0378         0.027950   
     97. D(C  10,C   8,C   7,H  21)   -179.8115         0.027615   
     98. D(C  10,C   8,C   7,C   6)      0.0274         0.027615   
     99. D(Br  9,C   8,C   7,H  21)      0.1309         0.027615   
    100. D(Br  9,C   8,C   7,C   6)    179.9697         0.027615   
    101. D(H  22,C  10,C   8,Br  9)     -0.0431         0.027459   
    102. D(H  22,C  10,C   8,C   7)    179.8992         0.027459   
    103. D(C  11,C  10,C   8,Br  9)   -179.9393         0.027459   
    104. D(C  11,C  10,C   8,C   7)      0.0030         0.027459   
    105. D(H  23,C  11,C   5,C   4)     -0.4335         0.026523   
    106. D(C  10,C  11,C   5,C   6)      0.0122         0.026523   
    107. D(C  10,C  11,C   5,C   4)    179.5719         0.026523   
    108. D(H  23,C  11,C  10,H  22)      0.0866         0.028287   
    109. D(H  23,C  11,C  10,C   8)    179.9826         0.028287   
    110. D(C   5,C  11,C  10,H  22)   -179.9188         0.028287   
    111. D(C   5,C  11,C  10,C   8)     -0.0228         0.028287   
    112. D(H  23,C  11,C   5,C   6)   -179.9932         0.026523   
    113. D(C  18,C  13,C   1,N   2)     23.2060         0.012690   
    114. D(C  18,C  13,C   1,O   0)   -154.6094         0.012690   
    115. D(C  14,C  13,C   1,N   2)   -157.3607         0.012690   
    116. D(C  14,C  13,C   1,O   0)     24.8239         0.012690   
    117. D(H  24,C  14,C  13,C  18)    179.7574         0.026482   
    118. D(H  24,C  14,C  13,C   1)      0.3108         0.026482   
    119. D(C  15,C  14,C  13,C  18)     -0.6836         0.026482   
    120. D(C  15,C  14,C  13,C   1)    179.8697         0.026482   
    121. D(H  25,C  15,C  14,H  24)      0.0541         0.027921   
    122. D(H  25,C  15,C  14,C  13)   -179.4974         0.027921   
    123. D(C  16,C  15,C  14,H  24)   -179.8936         0.027921   
    124. D(C  16,C  15,C  14,C  13)      0.5549         0.027921   
    125. D(H  26,C  16,C  15,H  25)     -0.2636         0.026930   
    126. D(H  26,C  16,C  15,C  14)    179.6840         0.026930   
    127. D(C  17,C  16,C  15,H  25)   -179.9648         0.026930   
    128. D(C  17,C  16,C  15,C  14)     -0.0172         0.026930   
    129. D(H  27,C  17,C  16,H  26)     -0.5998         0.027151   
    130. D(H  27,C  17,C  16,C  15)    179.1015         0.027151   
    131. D(C  18,C  17,C  16,H  26)    179.9036         0.027151   
    132. D(C  18,C  17,C  16,C  15)     -0.3952         0.027151   
    133. D(C  13,C  18,C  17,H  27)   -179.2326         0.027546   
    134. D(C  13,C  18,C  17,C  16)      0.2662         0.027546   
    135. D(H  28,C  18,C  13,C  14)   -178.1076         0.026326   
    136. D(H  28,C  18,C  13,C   1)      1.3111         0.026326   
    137. D(C  17,C  18,C  13,C  14)      0.2721         0.026326   
    138. D(H  28,C  18,C  17,C  16)    178.6598         0.027546   
    139. D(C  17,C  18,C  13,C   1)    179.6909         0.026326   
    140. D(H  28,C  18,C  17,H  27)     -0.8390         0.027546   
    -----------------------------------------------------------------

Number of atoms                         .... 29
Number of degrees of freedom            .... 140


         *************************************************************
         *                GEOMETRY OPTIMIZATION CYCLE   1            *
         *************************************************************
---------------------------------
CARTESIAN COORDINATES (ANGSTROEM)
---------------------------------
  O      0.628931    0.996995   -1.128061
  C      1.273402    0.137609   -0.565082
  N      0.687943   -1.007882   -0.078164
  O     -0.688469   -1.038834   -0.120468
  C     -1.294919   -0.205674    0.780960
  C     -2.765541   -0.196559    0.602702
  C     -3.390971   -0.896082   -0.426614
  C     -4.769739   -0.847898   -0.556982
  C     -5.504449   -0.097535    0.349521
  Br    -7.389280   -0.029525    0.172710
  C     -4.897758    0.605426    1.381207
  C     -3.519929    0.551602    1.502769
  O     -0.681677    0.408762    1.604042
  C      2.752285    0.198538   -0.384789
  C      3.349424    1.456676   -0.390624
  C      4.720447    1.572382   -0.224498
  C      5.499059    0.431558   -0.063827
  C      4.905894   -0.824921   -0.069017
  C      3.532486   -0.945079   -0.226475
  H      1.063952   -1.450447    0.752618
  H     -2.808910   -1.475784   -1.129120
  H     -5.265180   -1.384449   -1.354159
  H     -5.491137    1.184828    2.074747
  H     -3.021838    1.090484    2.297818
  H      2.729704    2.334574   -0.518592
  H      5.182969    2.550813   -0.220960
  H      6.570593    0.522169    0.060778
  H      5.513361   -1.713611    0.041454
  H      3.079347   -1.928137   -0.251413

----------------------------
CARTESIAN COORDINATES (A.U.)
----------------------------
  NO LB      ZA    FRAG     MASS         X           Y           Z
   0 O     8.0000    0    15.999    1.188507    1.884047   -2.131726
   1 C     6.0000    0    12.011    2.406381    0.260044   -1.067850
   2 N     7.0000    0    14.007    1.300023   -1.904621   -0.147709
   3 O     8.0000    0    15.999   -1.301017   -1.963111   -0.227652
   4 C     6.0000    0    12.011   -2.447043   -0.388668    1.475801
   5 C     6.0000    0    12.011   -5.226115   -0.371442    1.138942
   6 C     6.0000    0    12.011   -6.408006   -1.693350   -0.806184
   7 C     6.0000    0    12.011   -9.013500   -1.602294   -1.052544
   8 C     6.0000    0    12.011  -10.401900   -0.184314    0.660499
   9 Br   35.0000    0    79.900  -13.963716   -0.055794    0.326374
  10 C     6.0000    0    12.011   -9.255422    1.144090    2.610103
  11 C     6.0000    0    12.011   -6.651701    1.042377    2.839822
  12 O     8.0000    0    15.999   -1.288184    0.772447    3.031200
  13 C     6.0000    0    12.011    5.201065    0.375183   -0.727145
  14 C     6.0000    0    12.011    6.329494    2.752719   -0.738173
  15 C     6.0000    0    12.011    8.920352    2.971371   -0.424240
  16 C     6.0000    0    12.011   10.391715    0.815527   -0.120616
  17 C     6.0000    0    12.011    9.270796   -1.558874   -0.130423
  18 C     6.0000    0    12.011    6.675430   -1.785941   -0.427976
  19 H     1.0000    0     1.008    2.010577   -2.740948    1.422243
  20 H     1.0000    0     1.008   -5.308072   -2.788828   -2.133727
  21 H     1.0000    0     1.008   -9.949748   -2.616230   -2.558990
  22 H     1.0000    0     1.008  -10.376745    2.239000    3.920703
  23 H     1.0000    0     1.008   -5.710446    2.060717    4.342247
  24 H     1.0000    0     1.008    5.158392    4.411706   -0.979998
  25 H     1.0000    0     1.008    9.794393    4.820338   -0.417554
  26 H     1.0000    0     1.008   12.416622    0.986756    0.114853
  27 H     1.0000    0     1.008   10.418743   -3.238256    0.078336
  28 H     1.0000    0     1.008    5.819123   -3.643650   -0.475102

--------------------------------
INTERNAL COORDINATES (ANGSTROEM)
--------------------------------
 O      0   0   0     0.000000000000     0.00000000     0.00000000
 C      1   0   0     1.212778618040     0.00000000     0.00000000
 N      2   1   0     1.375500576328   121.88793971     0.00000000
 O      3   2   1     1.377409091157   115.66870275   352.18048605
 C      4   3   2     1.369127332241   114.12511303   288.58902261
 C      5   4   3     1.481413651572   111.36081046   174.96239070
 C      6   5   4     1.392834570448   122.11341585   356.02402396
 C      7   6   5     1.385755827460   119.92265023   180.47937239
 C      8   7   6     1.387296140206   118.96412171   359.96215668
 Br     9   8   7     1.894327986494   119.03688003   179.96969876
 C      9   8   7     1.388021483853   121.87905321     0.02737876
 C     11   9   8     1.384228368471   118.72791645     0.00000000
 O      5   4   3     1.196269625032   122.58124535   354.15384358
 C      2   1   3     1.491077584513   123.65759613   177.65715348
 C     14   2   1     1.392666757972   117.49528138    24.82385425
 C     15  14   2     1.385889042887   119.94019713   179.86970378
 C     16  15  14     1.390514483140   119.95322904     0.55492286
 C     17  16  15     1.389464370645   120.16129136     0.00000000
 C     18  17  16     1.387617420394   120.08338961   359.60481885
 H      3   2   1     1.013630627863   119.72584665   212.03881841
 H      7   6   5     1.080908419545   120.52054979     0.28683307
 H      8   7   6     1.081129298468   120.53493201   179.80094165
 H     11   9   8     1.081110999374   120.55316529   179.89922613
 H     12  11   9     1.081938950520   120.22561366   179.98259209
 H     15  14   2     1.082189685508   119.19723665     0.31077890
 H     16  15  14     1.082251132023   119.91124579   180.50263633
 H     17  16  15     1.082553827287   119.92560577   179.68403701
 H     18  17  16     1.082123498330   120.17322775   179.10145829
 H     19  18  17     1.082754970674   119.69964504   178.65980698

---------------------------
INTERNAL COORDINATES (A.U.)
---------------------------
 O      0   0   0     0.000000000000     0.00000000     0.00000000
 C      1   0   0     2.291819449171     0.00000000     0.00000000
 N      2   1   0     2.599319386311   121.88793971     0.00000000
 O      3   2   1     2.602925956660   115.66870275   352.18048605
 C      4   3   2     2.587275700401   114.12511303   288.58902261
 C      5   4   3     2.799466092524   111.36081046   174.96239070
 C      6   5   4     2.632075888004   122.11341585   356.02402396
 C      7   6   5     2.618699002385   119.92265023   180.47937239
 C      8   7   6     2.621609771635   118.96412171   359.96215668
 Br     9   8   7     3.579761102297   119.03688003   179.96969876
 C      9   8   7     2.622980472482   121.87905321     0.02737876
 C     11   9   8     2.615812523214   118.72791645     0.00000000
 O      5   4   3     2.260621973639   122.58124535   354.15384358
 C      2   1   3     2.817728279158   123.65759613   177.65715348
 C     14   2   1     2.631758768384   117.49528138    24.82385425
 C     15  14   2     2.618950743059   119.94019713   179.86970378
 C     16  15  14     2.627691558386   119.95322904     0.55492286
 C     17  16  15     2.625707133360   120.16129136     0.00000000
 C     18  17  16     2.622216903202   120.08338961   359.60481885
 H      3   2   1     1.915484287615   119.72584665   212.03881841
 H      7   6   5     2.042620888790   120.52054979     0.28683307
 H      8   7   6     2.043038289463   120.53493201   179.80094165
 H     11   9   8     2.043003709186   120.55316529   179.89922613
 H     12  11   9     2.044568310106   120.22561366   179.98259209
 H     15  14   2     2.045042130564   119.19723665     0.31077890
 H     16  15  14     2.045158247650   119.91124579   180.50263633
 H     17  16  15     2.045730258801   119.92560577   179.68403701
 H     18  17  16     2.044917054925   120.17322775   179.10145829
 H     19  18  17     2.046110364715   119.69964504   178.65980698

---------------------
BASIS SET INFORMATION
---------------------
There are 5 groups of distinct atoms

 Group   1 Type O   : 11s6p2d1f contracted to 5s3p2d1f pattern {62111/411/11/1}
 Group   2 Type C   : 11s6p2d1f contracted to 5s3p2d1f pattern {62111/411/11/1}
 Group   3 Type N   : 11s6p2d1f contracted to 5s3p2d1f pattern {62111/411/11/1}
 Group   4 Type Br  : 17s13p8d1f contracted to 6s5p4d1f pattern {842111/64111/5111/1}
 Group   5 Type H   : 5s1p contracted to 3s1p pattern {311/1}

Atom   0O    basis set group =>   1
Atom   1C    basis set group =>   2
Atom   2N    basis set group =>   3
Atom   3O    basis set group =>   1
Atom   4C    basis set group =>   2
Atom   5C    basis set group =>   2
Atom   6C    basis set group =>   2
Atom   7C    basis set group =>   2
Atom   8C    basis set group =>   2
Atom   9Br   basis set group =>   4
Atom  10C    basis set group =>   2
Atom  11C    basis set group =>   2
Atom  12O    basis set group =>   1
Atom  13C    basis set group =>   2
Atom  14C    basis set group =>   2
Atom  15C    basis set group =>   2
Atom  16C    basis set group =>   2
Atom  17C    basis set group =>   2
Atom  18C    basis set group =>   2
Atom  19H    basis set group =>   5
Atom  20H    basis set group =>   5
Atom  21H    basis set group =>   5
Atom  22H    basis set group =>   5
Atom  23H    basis set group =>   5
Atom  24H    basis set group =>   5
Atom  25H    basis set group =>   5
Atom  26H    basis set group =>   5
Atom  27H    basis set group =>   5
Atom  28H    basis set group =>   5
---------------------------------
AUXILIARY/J BASIS SET INFORMATION
---------------------------------
There are 5 groups of distinct atoms

 Group   1 Type O   : 12s5p4d2f1g contracted to 6s4p3d1f1g pattern {711111/2111/211/2/1}
 Group   2 Type C   : 12s5p4d2f1g contracted to 6s4p3d1f1g pattern {711111/2111/211/2/1}
 Group   3 Type N   : 12s5p4d2f1g contracted to 6s4p3d1f1g pattern {711111/2111/211/2/1}
 Group   4 Type Br  : 19s5p5d3f1g contracted to 8s4p3d2f1g pattern {121111111/2111/311/21/1}
 Group   5 Type H   : 5s2p1d contracted to 3s1p1d pattern {311/2/1}

Atom   0O    basis set group =>   1
Atom   1C    basis set group =>   2
Atom   2N    basis set group =>   3
Atom   3O    basis set group =>   1
Atom   4C    basis set group =>   2
Atom   5C    basis set group =>   2
Atom   6C    basis set group =>   2
Atom   7C    basis set group =>   2
Atom   8C    basis set group =>   2
Atom   9Br   basis set group =>   4
Atom  10C    basis set group =>   2
Atom  11C    basis set group =>   2
Atom  12O    basis set group =>   1
Atom  13C    basis set group =>   2
Atom  14C    basis set group =>   2
Atom  15C    basis set group =>   2
Atom  16C    basis set group =>   2
Atom  17C    basis set group =>   2
Atom  18C    basis set group =>   2
Atom  19H    basis set group =>   5
Atom  20H    basis set group =>   5
Atom  21H    basis set group =>   5
Atom  22H    basis set group =>   5
Atom  23H    basis set group =>   5
Atom  24H    basis set group =>   5
Atom  25H    basis set group =>   5
Atom  26H    basis set group =>   5
Atom  27H    basis set group =>   5
Atom  28H    basis set group =>   5


           ************************************************************
           *        Program running with 16 parallel MPI-processes    *
           *              working on a common directory               *
           ************************************************************
------------------------------------------------------------------------------
                             ORCA STARTUP CALCULATIONS
                           -- RI-GTO INTEGRALS CHOSEN --
------------------------------------------------------------------------------
------------------------------------------------------------------------------
                   ___                                                        
                  /   \      - P O W E R E D   B Y -                         
                 /     \                                                     
                 |  |  |   _    _      __       _____    __    __             
                 |  |  |  | |  | |    /  \     |  _  \  |  |  /  |          
                  \  \/   | |  | |   /    \    | | | |  |  | /  /          
                 / \  \   | |__| |  /  /\  \   | |_| |  |  |/  /          
                |  |  |   |  __  | /  /__\  \  |    /   |      \           
                |  |  |   | |  | | |   __   |  |    \   |  |\   \          
                \     /   | |  | | |  |  |  |  | |\  \  |  | \   \       
                 \___/    |_|  |_| |__|  |__|  |_| \__\ |__|  \__/        
                                                                              
                      - O R C A' S   B I G   F R I E N D -                    
                                      &                                       
                       - I N T E G R A L  F E E D E R -                       
                                                                              
 v1 FN, 2020, v2 2021, v3 2022-2024                                           
------------------------------------------------------------------------------


----------------------
SHARK INTEGRAL PACKAGE
----------------------

Number of atoms                             ...     29
Number of basis functions                   ...    666
Number of shells                            ...    254
Maximum angular momentum                    ...      3
Integral batch strategy                     ... SHARK/LIBINT Hybrid
RI-J (if used) integral strategy            ... SPLIT-RIJ (Revised 2003 algorithm where possible)
Printlevel                                  ...      1
Contraction scheme used                     ... SEGMENTED contraction
Prescreening option                         ... SCHWARTZ
   Thresh                                   ... 2.500e-11
   Tcut                                     ... 2.500e-12
   Tpresel                                  ... 2.500e-12 
Coulomb Range Separation                    ... NOT USED
Exchange Range Separation                   ... NOT USED
Multipole approximations                    ... NOT USED
Finite Nucleus Model                        ... NOT USED
CABS basis                                  ... NOT available
Auxiliary Coulomb fitting basis             ... AVAILABLE
   # of basis functions in Aux-J            ...   1050
   # of shells in Aux-J                     ...    338
   Maximum angular momentum in Aux-J        ...      4
Auxiliary J/K fitting basis                 ... NOT available
Auxiliary Correlation fitting basis         ... NOT available
Auxiliary 'external' fitting basis          ... NOT available

Checking pre-screening integrals            ... done (  0.0 sec) Dimension = 254
Check shell pair data                       ... done (  0.0 sec)
Shell pair information
Shell pair cut-off parameter TPreSel        ...   2.5e-12
Total number of shell pairs                 ...     32385
Shell pairs after pre-screening             ...     21143
Total number of primitive shell pairs       ...    106062
Primitive shell pairs kept                  ...     45738
          la=0 lb=0:   4971 shell pairs
          la=1 lb=0:   5986 shell pairs
          la=1 lb=1:   1798 shell pairs
          la=2 lb=0:   3133 shell pairs
          la=2 lb=1:   1884 shell pairs
          la=2 lb=2:    499 shell pairs
          la=3 lb=0:   1428 shell pairs
          la=3 lb=1:    884 shell pairs
          la=3 lb=2:    450 shell pairs
          la=3 lb=3:    110 shell pairs

Calculating one electron integrals          ... done (  0.0 sec)
Calculating RI/J V-Matrix + Cholesky decomp.... done (  0.1 sec)
Calculating Nuclear repulsion               ... done (  0.0 sec) ENN=   1580.701585770821 Eh

Diagonalization of the overlap matrix:
Smallest eigenvalue                        ... 7.679e-06
Time for diagonalization                   ...    0.179 sec
Threshold for overlap eigenvalues          ... 1.000e-07
Number of eigenvalues below threshold      ... 0
Time for construction of square roots      ...    0.119 sec
Total time needed                          ...    0.306 sec

-------------------
DFT GRID GENERATION
-------------------

General Integration Accuracy     IntAcc      ... 4.388
Radial Grid Type                 RadialGrid  ... OptM3 with GC (2021)
Angular Grid (max. ang.)         AngularGrid ... 4 (Lebedev-302)
Angular grid pruning method      GridPruning ... 4 (adaptive)
Weight generation scheme         WeightScheme... mBecke (2022)
Basis function cutoff            BFCut       ... 1.0000e-11
Integration weight cutoff        WCut        ... 1.0000e-14
Partially contracted basis set               ... off
Rotationally invariant grid construction     ... off
Angular grids for H and He will be reduced by one unit
Core-polarized basis detected: some atoms will have their core
                               angular grid increased.

Total number of grid points                  ...   151451
Total number of batches                      ...     2380
Average number of points per batch           ...       63
Average number of grid points per atom       ...     5222

--------------------
COSX GRID GENERATION
--------------------

GRIDX 1
-------
General Integration Accuracy     IntAcc      ... 3.816
Radial Grid Type                 RadialGrid  ... OptM3 with GC (2021)
Angular Grid (max. ang.)         AngularGrid ... 1 (Lebedev-50)
Angular grid pruning method      GridPruning ... 4 (adaptive)
Weight generation scheme         WeightScheme... mBecke (2022)
Basis function cutoff            BFCut       ... 1.0000e-11
Integration weight cutoff        WCut        ... 1.0000e-14
Partially contracted basis set               ... on
Rotationally invariant grid construction     ... off
Angular grids for H and He will be reduced by one unit
Core-polarized basis detected: some atoms will have their core
                               angular grid increased.

Total number of grid points                  ...    23919
Total number of batches                      ...      201
Average number of points per batch           ...      119
Average number of grid points per atom       ...      825
UseSFitting                                  ... on

GRIDX 2
-------
General Integration Accuracy     IntAcc      ... 4.020
Radial Grid Type                 RadialGrid  ... OptM3 with GC (2021)
Angular Grid (max. ang.)         AngularGrid ... 2 (Lebedev-110)
Angular grid pruning method      GridPruning ... 4 (adaptive)
Weight generation scheme         WeightScheme... mBecke (2022)
Basis function cutoff            BFCut       ... 1.0000e-11
Integration weight cutoff        WCut        ... 1.0000e-14
Partially contracted basis set               ... on
Rotationally invariant grid construction     ... off
Angular grids for H and He will be reduced by one unit
Core-polarized basis detected: some atoms will have their core
                               angular grid increased.

Total number of grid points                  ...    45661
Total number of batches                      ...      370
Average number of points per batch           ...      123
Average number of grid points per atom       ...     1575
UseSFitting                                  ... on

GRIDX 3
-------
General Integration Accuracy     IntAcc      ... 4.338
Radial Grid Type                 RadialGrid  ... OptM3 with GC (2021)
Angular Grid (max. ang.)         AngularGrid ... 3 (Lebedev-194)
Angular grid pruning method      GridPruning ... 4 (adaptive)
Weight generation scheme         WeightScheme... mBecke (2022)
Basis function cutoff            BFCut       ... 1.0000e-11
Integration weight cutoff        WCut        ... 1.0000e-14
Partially contracted basis set               ... on
Rotationally invariant grid construction     ... off
Angular grids for H and He will be reduced by one unit
Core-polarized basis detected: some atoms will have their core
                               angular grid increased.

Total number of grid points                  ...    93058
Total number of batches                      ...      743
Average number of points per batch           ...      125
Average number of grid points per atom       ...     3209
UseSFitting                                  ... on
Initializing property integral containers    ... done (  0.1 sec)

SHARK setup successfully completed in   5.0 seconds

Maximum memory used throughout the entire STARTUP-calculation: 59.3 MB


           ************************************************************
           *        Program running with 16 parallel MPI-processes    *
           *              working on a common directory               *
           ************************************************************
-------------------------------------------------------------------------------
                                 ORCA GUESS
                   Start orbitals & Density for SCF / CASSCF
-------------------------------------------------------------------------------

------------
SCF SETTINGS
------------
Hamiltonian:
 Density Functional     Method          .... DFT(GTOs)
 Exchange Functional    Exchange        .... M062X
 Correlation Functional Correlation     .... M062X
 Gradients option       PostSCFGGA      .... off
 Hybrid DFT is turned on
   Fraction HF Exchange ScalHFX         ....  0.540000
   Scaling of DF-GGA-X  ScalDFX         ....  0.460000
   Scaling of DF-GGA-C  ScalDFC         ....  1.000000
   Scaling of DF-LDA-C  ScalLDAC        ....  1.000000
   Perturbative correction              ....  0.000000
 RI-approximation to the Coulomb term is turned on
   Number of AuxJ basis functions       .... 1050
   RIJ-COSX (HFX calculated with COS-X)).... on


General Settings:
 Integral files         IntName         .... molecule_anion_opt_freq
 Hartree-Fock type      HFTyp           .... UHF
 Total Charge           Charge          ....   -1
 Multiplicity           Mult            ....    2
 Number of Electrons    NEL             ....  161
 Basis Dimension        Dim             ....  666
 Nuclear Repulsion      ENuc            ....   1580.7015857708 Eh

Convergence Acceleration:
 AO-DIIS                CNVDIIS         .... on
   Start iteration      DIISMaxIt       ....     0
   Startup error        DIISStart       ....  0.200000
   # of expansion vecs  DIISMaxEq       ....     5
   Bias factor          DIISBfac        ....   1.050
   Max. coefficient     DIISMaxC        ....  10.000
 MO-DIIS                CNVKDIIS        .... off
 Trust-Rad. Augm. Hess. CNVTRAH         .... auto
   Auto Start mean grad. ratio tolernc. ....  1.125000
   Auto Start start iteration           ....    50
   Auto Start num. interpolation iter.  ....    10
   Max. Number of Micro iterations      ....    24
   Max. Number of Macro iterations      .... Maxiter - #DIIS iter
   Number of Davidson start vectors     ....     2
   Converg. threshold    (grad. norm)   ....   1.000e-05
   Grad. Scal. Fac. for Micro threshold ....   0.100
   Minimum threshold for Micro iter.    ....   1.000e-02
   NR start threshold (gradient norm)   ....   1.000e-04
   Initial trust radius                 ....   0.400
   Minimum AH scaling param. (alpha)    ....   1.000
   Maximum AH scaling param. (alpha)    .... 1000.000
   Quad. conv. algorithm                .... NR
   White noise on init. David. guess    .... on
   Maximum white noise                  ....   0.010
   Pseudo random numbers                .... off
   Inactive MOs                         .... canonical
   Orbital update algorithm             .... Taylor
   Preconditioner                       .... Diag
   Full preconditioner red. dimension   ....   250
 SOSCF                  CNVSOSCF        .... on
   Start iteration      SOSCFMaxIt      ....   150
   Startup grad/error   SOSCFStart      ....  0.001000
   Hessian update       SOSCFHessUp     .... L-BFGS
 Level Shifting         CNVShift        .... on
   Level shift para.    LevelShift      ....    0.2500
   Turn off err/grad.   ShiftErr        ....    0.0000
 Zerner damping         CNVZerner       .... off
 Static damping         CNVDamp         .... on
   Fraction old density DampFac         ....    0.8500
   Max. Damping (<1)    DampMax         ....    0.9800
   Min. Damping (>=0)   DampMin         ....    0.0000
   Turn off err/grad.   DampErr         ....    0.0300

SCF Procedure:
 Maximum # iterations   MaxIter         ....   125
 SCF integral mode      SCFMode         .... Direct
   Integral package                     .... SHARK and LIBINT hybrid scheme
 Reset frequency        DirectResetFreq ....    20
 Integral Threshold     Thresh          ....  2.500e-11 Eh
 Primitive CutOff       TCut            ....  2.500e-12 Eh

Convergence Tolerance:
 Convergence Check Mode ConvCheckMode   .... Total+1el-Energy
 Convergence forced     ConvForced      .... 0
 Energy Change          TolE            ....  1.000e-08 Eh
 1-El. energy change                    ....  1.000e-05 Eh
 Orbital Gradient       TolG            ....  1.000e-05
 Orbital Rotation angle TolX            ....  1.000e-05
 DIIS Error             TolErr          ....  5.000e-07

------------------------------
INITIAL GUESS: MODEL POTENTIAL
------------------------------
Loading Hartree-Fock densities                     ... done
Calculating cut-offs                               ... done
Initializing the effective Hamiltonian             ... done
Setting up the integral package (SHARK)            ... done
Starting the Coulomb interaction                   ... done (   0.2 sec)
Making the grid                                    ... done (   0.5 sec)
Mapping shells                                     ... done
Starting the XC term evaluation                    ... done (   0.2 sec)
  promolecular density results
     # of electrons  =    159.991585741
     EX              =   -194.873062019
     EC              =     -5.933102307
     EX+EC           =   -200.806164326
Transforming the Hamiltonian                       ... done (   0.1 sec)
Diagonalizing the Hamiltonian                      ... done (   0.2 sec)
Back transforming the eigenvectors                 ... done (   0.1 sec)
Now organizing SCF variables                       ... done
                      ------------------
                      INITIAL GUESS DONE (   1.8 sec)
                      ------------------
             **** ENERGY FILE WAS UPDATED (molecule_anion_opt_freq.en.tmp) ****
Finished Guess after   2.2 sec
Maximum memory used throughout the entire GUESS-calculation: 41.9 MB


           ************************************************************
           *        Program running with 16 parallel MPI-processes    *
           *              working on a common directory               *
           ************************************************************

-------------------------------------------------------------------------------------------
                                      ORCA LEAN-SCF
                              memory conserving SCF solver
-------------------------------------------------------------------------------------------

--------------------
CPCM SOLVATION MODEL
--------------------
CPCM parameters:
  Epsilon                                         ...      33.4280
  Refrac                                          ...       1.3288
  Rsolv                                           ...       1.3000
  Surface type                                    ... GAUSSIAN VDW
  Discretization scheme                           ... Constant charge density
    Threshold for H atoms                         ...       5.0000 (charges/Ang^2)
    Threshold for non-H atoms                     ...       5.0000 (charges/Ang^2)
  Epsilon function type                           ...         CPCM
Solvent:                                          ... METHANOL
Radii:
  Scheme                                          ... Element-dependent radii
  Radius for O  used is    3.4469 Bohr (=   1.8240 Ang.)
  Radius for C  used is    3.8550 Bohr (=   2.0400 Ang.)
  Radius for N  used is    3.5149 Bohr (=   1.8600 Ang.)
  Radius for Br used is    4.1952 Bohr (=   2.2200 Ang.)
  Radius for H  used is    2.4944 Bohr (=   1.3200 Ang.)
Calculating surface                               ...        done! (  0.0s)
Cavity surface points                             ...         2811
Cavity Volume                                     ...    2116.2115
Cavity Surface-area                               ...    1103.8715
Calculating surface distance matrix               ...        done! (  0.1s)
Performing Cholesky decomposition & store         ...        done! (  0.8s)
Overall time for CPCM initialization              ...                 0.9s

----------------------------------------D-I-I-S--------------------------------------------
Iteration    Energy (Eh)           Delta-E    RMSDP     MaxDP     DIISErr   Damp  Time(sec)
-------------------------------------------------------------------------------------------
               ***  Starting incremental Fock matrix formation  ***
    1    -3393.5801241405360997     0.00e+00  3.85e-04  3.86e-02  1.53e-01  0.850  12.4
Warning: op=0 Small HOMO/LUMO gap (   0.023) - skipping pre-diagonalization
         Will do a full diagonalization
    2    -3393.7203705870088015    -1.40e-01  5.63e-04  8.73e-02  1.15e-01  0.850   9.9
                               ***Turning on AO-DIIS***
    3    -3393.8181723086545389    -9.78e-02  3.34e-04  3.88e-02  7.97e-02  0.850   8.4
    4    -3393.8848434529027145    -6.67e-02  2.33e-04  1.84e-02  6.53e-02  0.850   8.2
    5    -3393.9347836804836334    -4.99e-02  1.83e-04  1.18e-02  5.58e-02  0.850   8.3
    6    -3393.9747461521092191    -4.00e-02  1.53e-04  9.55e-03  4.79e-02  0.850   8.0
    7    -3394.0077220402272360    -3.30e-02  1.31e-04  8.40e-03  4.05e-02  0.850   8.0
    8    -3394.0350776211680568    -2.74e-02  1.11e-04  7.21e-03  3.39e-02  0.850   7.8
    9    -3394.0576630306932202    -2.26e-02  9.42e-05  6.19e-03  2.85e-02  0.850   7.9
   10    -3394.0763710634264498    -1.87e-02  5.32e-04  3.57e-02  2.42e-02  0.000   7.9
   11    -3394.1752651843498825    -9.89e-02  2.92e-05  3.91e-03  1.39e-03  0.000   8.4
                              *** Initializing SOSCF ***
---------------------------------------S-O-S-C-F--------------------------------------
Iteration    Energy (Eh)           Delta-E    RMSDP     MaxDP     MaxGrad    Time(sec)
--------------------------------------------------------------------------------------
   12    -3394.1753546625059244    -8.95e-05  1.72e-05  2.31e-03  6.43e-04     8.7
               *** Restarting incremental Fock matrix formation ***
   13    -3394.1752987648078488     5.59e-05  7.58e-05  6.07e-03  1.39e-03    11.7
   14    -3394.1753485712051770    -4.98e-05  2.05e-04  1.43e-02  1.13e-03     9.4
   15    -3394.1754194976347208    -7.09e-05  1.46e-04  1.25e-02  4.84e-04    10.0
   16    -3394.1754357166500995    -1.62e-05  3.08e-05  2.39e-03  2.39e-04     9.5
   17    -3394.1754394475838126    -3.73e-06  1.86e-05  1.11e-03  1.50e-04     9.0
   18    -3394.1754414827182700    -2.04e-06  1.76e-05  1.44e-03  1.08e-04     9.0
   19    -3394.1754420403831318    -5.58e-07  8.51e-06  6.31e-04  3.69e-05     8.7
   20    -3394.1754421752220878    -1.35e-07  1.76e-06  1.09e-04  4.12e-05     8.2
   21    -3394.1754422008752954    -2.57e-08  1.84e-06  1.60e-04  1.07e-05     7.5
   22    -3394.1754421936493600     7.23e-09  3.67e-07  2.46e-05  7.14e-06     7.5
                 **** Energy Check signals convergence ****

               *****************************************************
               *                     SUCCESS                       *
               *           SCF CONVERGED AFTER  22 CYCLES          *
               *****************************************************

Recomputing exchange energy using gridx3       ... done (   11.517 sec)
Old exchange energy                            :   -106.606778587 Eh
New exchange energy                            :   -106.606747978 Eh
Exchange energy change after final integration :      0.000030609 Eh
Total energy after final integration           :  -3394.175411585 Eh
             **** ENERGY FILE WAS UPDATED (molecule_anion_opt_freq.en.tmp) ****

----------------
TOTAL SCF ENERGY
----------------

Total Energy       :      -3394.17541158464792 Eh          -92360.20845 eV

Components:
Nuclear Repulsion  :       1580.70158577082134 Eh           43013.07689 eV
Electronic Energy  :      -4974.77660192976600 Eh         -135370.55344 eV
One Electron Energy:      -7859.73883036594998 Eh         -213874.36674 eV
Two Electron Energy:       2884.96222843618398 Eh           78503.81329 eV
CPCM Dielectric    :         -0.10042603470461 Eh              -2.73273 eV

Virial components:
Potential Energy   :      -6781.57578280606958 Eh         -184536.05868 eV
Kinetic Energy     :       3387.40037122142166 Eh           92175.85023 eV
Virial Ratio       :          2.00200007073884

DFT components:
N(Alpha)           :       81.000006376448 electrons
N(Beta)            :       80.000005641169 electrons
N(Total)           :      161.000012017617 electrons
E(XC)              :      -97.315654250234 Eh       

CPCM Solvation Model Properties:
Surface-charge          :          0.96169272052255
Corrected charge        :          1.00000000000000
Outlying charge corr.   :          0.00007667743280 Eh               0.00209 eV
Free-energy (cav+disp)  :  This term is not implemented in the current solvation scheme

---------------
SCF CONVERGENCE
---------------

  Last Energy change         ...   -7.2259e-09  Tolerance :   1.0000e-08
  Last MAX-Density change    ...    2.4581e-05  Tolerance :   1.0000e-07
  Last RMS-Density change    ...    3.6655e-07  Tolerance :   5.0000e-09
  Last DIIS Error            ...    6.4346e-04  Tolerance :   5.0000e-07
  Last Orbital Gradient      ...    7.1359e-06  Tolerance :   1.0000e-05
  Last Orbital Rotation      ...    2.1084e-05  Tolerance :   1.0000e-05


----------------------
UHF SPIN CONTAMINATION
----------------------

Warning: in a DFT calculation there is little theoretical justification to 
         calculate <S**2> as in Hartree-Fock theory. We will do it anyways
         but you should keep in mind that the values have only limited relevance

Expectation value of <S**2>     :     0.760557
Ideal value S*(S+1) for S=0.5   :     0.750000
Deviation                       :     0.010557

----------------
ORBITAL ENERGIES
----------------
                 SPIN UP ORBITALS
  NO   OCC          E(Eh)            E(eV) 
   0   1.0000    -485.385299    -13208.0055 
   1   1.0000     -63.367167     -1724.3083 
   2   1.0000     -57.185555     -1556.0981 
   3   1.0000     -57.184072     -1556.0577 
   4   1.0000     -57.184052     -1556.0572 
   5   1.0000     -19.702517      -536.1327 
   6   1.0000     -19.630694      -534.1784 
   7   1.0000     -19.563206      -532.3419 
   8   1.0000     -14.796703      -402.6388 
   9   1.0000     -10.683961      -290.7254 
  10   1.0000     -10.613405      -288.8054 
  11   1.0000     -10.596450      -288.3441 
  12   1.0000     -10.569925      -287.6223 
  13   1.0000     -10.564132      -287.4647 
  14   1.0000     -10.563182      -287.4388 
  15   1.0000     -10.561297      -287.3875 
  16   1.0000     -10.561216      -287.3853 
  17   1.0000     -10.512801      -286.0678 
  18   1.0000     -10.510988      -286.0185 
  19   1.0000     -10.505791      -285.8771 
  20   1.0000     -10.504907      -285.8530 
  21   1.0000     -10.500849      -285.7426 
  22   1.0000     -10.492765      -285.5226 
  23   1.0000      -9.033952      -245.8263 
  24   1.0000      -6.857689      -186.6072 
  25   1.0000      -6.849534      -186.3853 
  26   1.0000      -6.849149      -186.3748 
  27   1.0000      -2.891690       -78.6869 
  28   1.0000      -2.888758       -78.6071 
  29   1.0000      -2.888376       -78.5967 
  30   1.0000      -2.880466       -78.3815 
  31   1.0000      -2.880454       -78.3811 
  32   1.0000      -1.274794       -34.6889 
  33   1.0000      -1.176785       -32.0219 
  34   1.0000      -1.131662       -30.7941 
  35   1.0000      -0.998488       -27.1702 
  36   1.0000      -0.971256       -26.4292 
  37   1.0000      -0.931684       -25.3524 
  38   1.0000      -0.914685       -24.8899 
  39   1.0000      -0.867639       -23.6097 
  40   1.0000      -0.842876       -22.9358 
  41   1.0000      -0.820689       -22.3321 
  42   1.0000      -0.815631       -22.1944 
  43   1.0000      -0.747102       -20.3297 
  44   1.0000      -0.716358       -19.4931 
  45   1.0000      -0.695077       -18.9140 
  46   1.0000      -0.669855       -18.2277 
  47   1.0000      -0.662166       -18.0185 
  48   1.0000      -0.653241       -17.7756 
  49   1.0000      -0.633466       -17.2375 
  50   1.0000      -0.601749       -16.3744 
  51   1.0000      -0.580428       -15.7943 
  52   1.0000      -0.550115       -14.9694 
  53   1.0000      -0.546461       -14.8700 
  54   1.0000      -0.542053       -14.7500 
  55   1.0000      -0.536339       -14.5945 
  56   1.0000      -0.519751       -14.1431 
  57   1.0000      -0.510278       -13.8854 
  58   1.0000      -0.503587       -13.7033 
  59   1.0000      -0.490622       -13.3505 
  60   1.0000      -0.480117       -13.0647 
  61   1.0000      -0.470651       -12.8071 
  62   1.0000      -0.468526       -12.7492 
  63   1.0000      -0.464942       -12.6517 
  64   1.0000      -0.457803       -12.4574 
  65   1.0000      -0.429786       -11.6951 
  66   1.0000      -0.426412       -11.6033 
  67   1.0000      -0.413485       -11.2515 
  68   1.0000      -0.406998       -11.0750 
  69   1.0000      -0.388663       -10.5761 
  70   1.0000      -0.387334       -10.5399 
  71   1.0000      -0.380619       -10.3572 
  72   1.0000      -0.373880       -10.1738 
  73   1.0000      -0.358409        -9.7528 
  74   1.0000      -0.339211        -9.2304 
  75   1.0000      -0.330524        -8.9940 
  76   1.0000      -0.313309        -8.5256 
  77   1.0000      -0.309459        -8.4208 
  78   1.0000      -0.295395        -8.0381 
  79   1.0000      -0.292875        -7.9695 
  80   1.0000      -0.103735        -2.8228 
  81   0.0000      -0.031805        -0.8655 
  82   0.0000       0.003592         0.0977 
  83   0.0000       0.036062         0.9813 
  84   0.0000       0.043107         1.1730 
  85   0.0000       0.080291         2.1848 
  86   0.0000       0.086601         2.3565 
  87   0.0000       0.095707         2.6043 
  88   0.0000       0.105775         2.8783 
  89   0.0000       0.112512         3.0616 
  90   0.0000       0.117771         3.2047 
  91   0.0000       0.123553         3.3620 

                 SPIN DOWN ORBITALS
  NO   OCC          E(Eh)            E(eV) 
   0   1.0000    -485.385299    -13208.0055 
   1   1.0000     -63.367167     -1724.3083 
   2   1.0000     -57.185556     -1556.0981 
   3   1.0000     -57.184072     -1556.0577 
   4   1.0000     -57.184052     -1556.0572 
   5   1.0000     -19.702505      -536.1324 
   6   1.0000     -19.630687      -534.1781 
   7   1.0000     -19.560395      -532.2654 
   8   1.0000     -14.795967      -402.6187 
   9   1.0000     -10.683889      -290.7234 
  10   1.0000     -10.613397      -288.8052 
  11   1.0000     -10.595360      -288.3144 
  12   1.0000     -10.569924      -287.6222 
  13   1.0000     -10.564128      -287.4645 
  14   1.0000     -10.563178      -287.4387 
  15   1.0000     -10.561299      -287.3876 
  16   1.0000     -10.561219      -287.3854 
  17   1.0000     -10.513234      -286.0796 
  18   1.0000     -10.511295      -286.0269 
  19   1.0000     -10.504945      -285.8541 
  20   1.0000     -10.504238      -285.8348 
  21   1.0000     -10.499826      -285.7148 
  22   1.0000     -10.490815      -285.4696 
  23   1.0000      -9.033952      -245.8263 
  24   1.0000      -6.857690      -186.6072 
  25   1.0000      -6.849532      -186.3853 
  26   1.0000      -6.849149      -186.3748 
  27   1.0000      -2.891690       -78.6869 
  28   1.0000      -2.888758       -78.6071 
  29   1.0000      -2.888376       -78.5967 
  30   1.0000      -2.880465       -78.3814 
  31   1.0000      -2.880453       -78.3811 
  32   1.0000      -1.274165       -34.6718 
  33   1.0000      -1.176207       -32.0062 
  34   1.0000      -1.124278       -30.5931 
  35   1.0000      -0.998238       -27.1634 
  36   1.0000      -0.968132       -26.3442 
  37   1.0000      -0.928170       -25.2568 
  38   1.0000      -0.914237       -24.8776 
  39   1.0000      -0.867602       -23.6087 
  40   1.0000      -0.841935       -22.9102 
  41   1.0000      -0.815508       -22.1911 
  42   1.0000      -0.812260       -22.1027 
  43   1.0000      -0.744894       -20.2696 
  44   1.0000      -0.716280       -19.4910 
  45   1.0000      -0.691543       -18.8178 
  46   1.0000      -0.666044       -18.1240 
  47   1.0000      -0.659391       -17.9429 
  48   1.0000      -0.649284       -17.6679 
  49   1.0000      -0.632900       -17.2221 
  50   1.0000      -0.599887       -16.3238 
  51   1.0000      -0.578328       -15.7371 
  52   1.0000      -0.548530       -14.9262 
  53   1.0000      -0.545036       -14.8312 
  54   1.0000      -0.540661       -14.7121 
  55   1.0000      -0.535783       -14.5794 
  56   1.0000      -0.516177       -14.0459 
  57   1.0000      -0.510126       -13.8812 
  58   1.0000      -0.500054       -13.6072 
  59   1.0000      -0.488579       -13.2949 
  60   1.0000      -0.475319       -12.9341 
  61   1.0000      -0.468903       -12.7595 
  62   1.0000      -0.463246       -12.6056 
  63   1.0000      -0.457304       -12.4439 
  64   1.0000      -0.449461       -12.2304 
  65   1.0000      -0.429562       -11.6890 
  66   1.0000      -0.426059       -11.5937 
  67   1.0000      -0.407044       -11.0762 
  68   1.0000      -0.401705       -10.9309 
  69   1.0000      -0.388412       -10.5692 
  70   1.0000      -0.384157       -10.4534 
  71   1.0000      -0.379004       -10.3132 
  72   1.0000      -0.371075       -10.0975 
  73   1.0000      -0.358362        -9.7515 
  74   1.0000      -0.330475        -8.9927 
  75   1.0000      -0.325659        -8.8616 
  76   1.0000      -0.309937        -8.4338 
  77   1.0000      -0.304990        -8.2992 
  78   1.0000      -0.282153        -7.6778 
  79   1.0000      -0.271253        -7.3812 
  80   0.0000      -0.031456        -0.8560 
  81   0.0000       0.003599         0.0979 
  82   0.0000       0.030621         0.8332 
  83   0.0000       0.036083         0.9819 
  84   0.0000       0.043656         1.1879 
  85   0.0000       0.080036         2.1779 
  86   0.0000       0.088694         2.4135 
  87   0.0000       0.103937         2.8283 
  88   0.0000       0.109039         2.9671 
  89   0.0000       0.117495         3.1972 
  90   0.0000       0.119958         3.2642 
*Only the first 10 virtual orbitals were printed.

                    ********************************
                    * MULLIKEN POPULATION ANALYSIS *
                    ********************************

--------------------------------------------
MULLIKEN ATOMIC CHARGES AND SPIN POPULATIONS
--------------------------------------------
   0 O :   -0.535461    0.131254
   1 C :    0.224224    0.175668
   2 N :   -0.227830    0.028355
   3 O :   -0.232187   -0.001194
   4 C :    0.364529    0.004542
   5 C :    0.055266    0.000732
   6 C :   -0.206821    0.000868
   7 C :   -0.163319   -0.000431
   8 C :    0.056396    0.001238
   9 Br:   -0.100139    0.000044
  10 C :   -0.165063   -0.000306
  11 C :   -0.191745    0.000417
  12 O :   -0.364250    0.000765
  13 C :    0.023809    0.142394
  14 C :   -0.335605    0.157618
  15 C :   -0.188455   -0.073455
  16 C :   -0.332473    0.356010
  17 C :   -0.193767   -0.098280
  18 C :   -0.352072    0.197079
  19 H :    0.289461    0.003419
  20 H :    0.195325   -0.000159
  21 H :    0.198816   -0.000008
  22 H :    0.198427   -0.000013
  23 H :    0.191575    0.000056
  24 H :    0.156427   -0.004781
  25 H :    0.155182   -0.000082
  26 H :    0.153632   -0.015683
  27 H :    0.155182    0.000895
  28 H :    0.170938   -0.006960
Sum of atomic charges         :   -1.0000000
Sum of atomic spin populations:    1.0000000

-----------------------------------------------------
MULLIKEN REDUCED ORBITAL CHARGES AND SPIN POPULATIONS
-----------------------------------------------------
CHARGE
  0 O s       :     3.794569  s :     3.794569
      pz      :     1.527004  p :     4.710039
      px      :     1.673925
      py      :     1.509111
      dz2     :     0.005425  d :     0.028841
      dxz     :     0.004438
      dyz     :     0.006134
      dx2y2   :     0.006188
      dxy     :     0.006656
      f0      :     0.000136  f :     0.002011
      f+1     :     0.000202
      f-1     :     0.000308
      f+2     :     0.000254
      f-2     :     0.000412
      f+3     :     0.000361
      f-3     :     0.000338

  1 C s       :     3.036497  s :     3.036497
      pz      :     0.875797  p :     2.492177
      px      :     0.872470
      py      :     0.743910
      dz2     :     0.038291  d :     0.227355
      dxz     :     0.047072
      dyz     :     0.031813
      dx2y2   :     0.072549
      dxy     :     0.037630
      f0      :     0.001460  f :     0.019748
      f+1     :     0.001842
      f-1     :     0.003504
      f+2     :     0.003294
      f-2     :     0.002402
      f+3     :     0.002257
      f-3     :     0.004989

  2 N s       :     3.467975  s :     3.467975
      pz      :     1.431299  p :     3.676925
      px      :     0.821734
      py      :     1.423892
      dz2     :     0.009885  d :     0.076882
      dxz     :     0.019212
      dyz     :     0.007583
      dx2y2   :     0.018245
      dxy     :     0.021958
      f0      :     0.000600  f :     0.006048
      f+1     :     0.000680
      f-1     :     0.000871
      f+2     :     0.001044
      f-2     :     0.000434
      f+3     :     0.001092
      f-3     :     0.001327

  3 O s       :     3.796199  s :     3.796199
      pz      :     1.614961  p :     4.384452
      px      :     1.143281
      py      :     1.626209
      dz2     :     0.007463  d :     0.048664
      dxz     :     0.011749
      dyz     :     0.007292
      dx2y2   :     0.011701
      dxy     :     0.010460
      f0      :     0.000279  f :     0.002872
      f+1     :     0.000417
      f-1     :     0.000300
      f+2     :     0.000462
      f-2     :     0.000325
      f+3     :     0.000630
      f-3     :     0.000460

  4 C s       :     3.037603  s :     3.037603
      pz      :     0.722425  p :     2.302614
      px      :     0.875501
      py      :     0.704688
      dz2     :     0.074831  d :     0.272556
      dxz     :     0.054535
      dyz     :     0.040674
      dx2y2   :     0.058623
      dxy     :     0.043892
      f0      :     0.003115  f :     0.022699
      f+1     :     0.002938
      f-1     :     0.003519
      f+2     :     0.005508
      f-2     :     0.002651
      f+3     :     0.001966
      f-3     :     0.003002

  5 C s       :     3.191501  s :     3.191501
      pz      :     0.913425  p :     2.678764
      px      :     0.807502
      py      :     0.957838
      dz2     :     0.021324  d :     0.065885
      dxz     :     0.010158
      dyz     :     0.006550
      dx2y2   :     0.017646
      dxy     :     0.010207
      f0      :     0.001079  f :     0.008584
      f+1     :     0.001080
      f-1     :     0.001149
      f+2     :     0.002103
      f-2     :     0.000927
      f+3     :     0.001136
      f-3     :     0.001110

  6 C s       :     3.265322  s :     3.265322
      pz      :     0.963222  p :     2.867684
      px      :     0.955556
      py      :     0.948905
      dz2     :     0.012493  d :     0.067247
      dxz     :     0.018076
      dyz     :     0.008031
      dx2y2   :     0.008705
      dxy     :     0.019943
      f0      :     0.000967  f :     0.006568
      f+1     :     0.000630
      f-1     :     0.000794
      f+2     :     0.001459
      f-2     :     0.000831
      f+3     :     0.000623
      f-3     :     0.001264

  7 C s       :     3.188205  s :     3.188205
      pz      :     0.972385  p :     2.902665
      px      :     0.970151
      py      :     0.960130
      dz2     :     0.009147  d :     0.065790
      dxz     :     0.022471
      dyz     :     0.006394
      dx2y2   :     0.008588
      dxy     :     0.019191
      f0      :     0.000748  f :     0.006659
      f+1     :     0.000699
      f-1     :     0.000922
      f+2     :     0.001496
      f-2     :     0.000756
      f+3     :     0.000700
      f-3     :     0.001338

  8 C s       :     3.242221  s :     3.242221
      pz      :     0.915595  p :     2.573712
      px      :     0.716493
      py      :     0.941623
      dz2     :     0.028755  d :     0.119274
      dxz     :     0.027201
      dyz     :     0.010385
      dx2y2   :     0.027762
      dxy     :     0.025171
      f0      :     0.001160  f :     0.008397
      f+1     :     0.000895
      f-1     :     0.001195
      f+2     :     0.002153
      f-2     :     0.000918
      f+3     :     0.000874
      f-3     :     0.001201

  9 Brs       :     7.920085  s :     7.920085
      pz      :     5.949588  p :    17.119026
      px      :     5.223189
      py      :     5.946249
      dz2     :     2.007327  d :    10.053513
      dxz     :     2.011311
      dyz     :     2.000817
      dx2y2   :     2.020457
      dxy     :     2.013601
      f0      :     0.000600  f :     0.007515
      f+1     :     0.001514
      f-1     :     0.000115
      f+2     :     0.001090
      f-2     :     0.000115
      f+3     :     0.002457
      f-3     :     0.001625

 10 C s       :     3.189899  s :     3.189899
      pz      :     0.948256  p :     2.901916
      px      :     0.987996
      py      :     0.965664
      dz2     :     0.011684  d :     0.066619
      dxz     :     0.020346
      dyz     :     0.007201
      dx2y2   :     0.008082
      dxy     :     0.019305
      f0      :     0.001016  f :     0.006629
      f+1     :     0.000575
      f-1     :     0.000808
      f+2     :     0.001519
      f-2     :     0.000872
      f+3     :     0.000590
      f-3     :     0.001249

 11 C s       :     3.241645  s :     3.241645
      pz      :     0.977714  p :     2.877860
      px      :     0.959188
      py      :     0.940958
      dz2     :     0.009164  d :     0.065644
      dxz     :     0.020839
      dyz     :     0.007144
      dx2y2   :     0.009164
      dxy     :     0.019333
      f0      :     0.000728  f :     0.006596
      f+1     :     0.000744
      f-1     :     0.000864
      f+2     :     0.001471
      f-2     :     0.000726
      f+3     :     0.000726
      f-3     :     0.001337

 12 O s       :     3.810869  s :     3.810869
      pz      :     1.419159  p :     4.520577
      px      :     1.655093
      py      :     1.446325
      dz2     :     0.008476  d :     0.030684
      dxz     :     0.006269
      dyz     :     0.005939
      dx2y2   :     0.004808
      dxy     :     0.005192
      f0      :     0.000289  f :     0.002121
      f+1     :     0.000399
      f-1     :     0.000281
      f+2     :     0.000365
      f-2     :     0.000407
      f+3     :     0.000213
      f-3     :     0.000167

 13 C s       :     3.206719  s :     3.206719
      pz      :     1.075957  p :     2.685072
      px      :     0.789367
      py      :     0.819748
      dz2     :     0.005437  d :     0.075696
      dxz     :     0.024230
      dyz     :     0.019525
      dx2y2   :     0.014578
      dxy     :     0.011925
      f0      :     0.001593  f :     0.008705
      f+1     :     0.001074
      f-1     :     0.000819
      f+2     :     0.000746
      f-2     :     0.000921
      f+3     :     0.001036
      f-3     :     0.002515

 14 C s       :     3.254658  s :     3.254658
      pz      :     1.044514  p :     3.004699
      px      :     0.981253
      py      :     0.978933
      dz2     :     0.004627  d :     0.069641
      dxz     :     0.018896
      dyz     :     0.013649
      dx2y2   :     0.012040
      dxy     :     0.020430
      f0      :     0.001212  f :     0.006606
      f+1     :     0.000781
      f-1     :     0.000703
      f+2     :     0.000801
      f-2     :     0.000425
      f+3     :     0.000899
      f-3     :     0.001785

 15 C s       :     3.217299  s :     3.217299
      pz      :     0.993366  p :     2.892472
      px      :     0.908773
      py      :     0.990333
      dz2     :     0.006056  d :     0.072223
[...]
 26:    499.31   0.002052   10.37  0.001283  (-0.014759 -0.025710  0.020093)
 27:    518.33   0.003409   17.23  0.002052  (-0.042704  0.014620 -0.003881)
 28:    582.16   0.012443   62.88  0.006670  (-0.025053 -0.034473  0.069670)
 29:    626.24   0.000196    0.99  0.000098  (-0.005708 -0.006901  0.004185)
 30:    639.49   0.000426    2.15  0.000208  (-0.007596  0.001920  0.012105)
 31:    665.43   0.001877    9.48  0.000880  (-0.000976 -0.004401 -0.029323)
 32:    683.14   0.024502  123.82  0.011192  ( 0.020083 -0.034892 -0.097835)
 33:    709.47   0.012171   61.51  0.005354  ( 0.033966  0.064523 -0.006050)
 34:    715.39   0.013749   69.48  0.005998  (-0.031847 -0.057693 -0.040679)
 35:    734.40   0.001428    7.22  0.000607  ( 0.003973  0.019131 -0.015004)
 36:    766.99   0.044362  224.19  0.018049  (-0.113218 -0.072277 -0.002645)
 37:    780.73   0.010785   54.50  0.004311  (-0.000098  0.057565 -0.031578)
 38:    804.95   0.002700   13.65  0.001047  ( 0.026057  0.008082 -0.017394)
 39:    830.15   0.003213   16.24  0.001208  (-0.016054  0.011504  0.028597)
 40:    866.04   0.000168    0.85  0.000060  ( 0.001937 -0.007523 -0.000297)
 41:    879.88   0.012507   63.21  0.004436  (-0.009974 -0.065196  0.009271)
 42:    890.93   0.025291  127.81  0.008858  (-0.041895 -0.079665  0.027510)
 43:    904.92   0.003646   18.43  0.001257  (-0.004650  0.034948  0.003790)
 44:    981.03   0.022962  116.04  0.007304  ( 0.085212 -0.001407  0.006402)
 45:    982.74   0.014836   74.98  0.004711  ( 0.067631 -0.009912  0.006242)
 46:    990.55   0.000027    0.14  0.000009  (-0.001751  0.001041 -0.002094)
 47:   1007.01   0.026497  133.90  0.008211  ( 0.090529  0.003619  0.001592)
 48:   1009.09   0.012754   64.45  0.003944  ( 0.062660  0.002569 -0.003358)
 49:   1019.53   0.000020    0.10  0.000006  (-0.001685 -0.000570  0.001695)
 50:   1025.84   0.022382  113.11  0.006809  ( 0.080793 -0.012014 -0.011693)
 51:   1027.51   0.005417   27.37  0.001645  (-0.038731 -0.001793 -0.011905)
 52:   1075.55   0.016846   85.13  0.004888  ( 0.050907  0.005844 -0.047561)
 53:   1101.67   0.006402   32.35  0.001813  ( 0.041512 -0.009368 -0.001537)
 54:   1104.71   0.014154   71.53  0.003998  (-0.062501  0.009508  0.001228)
 55:   1133.62   0.004009   20.26  0.001104  ( 0.014189 -0.019056 -0.023221)
 56:   1146.43   0.007768   39.26  0.002114  ( 0.021667 -0.036015  0.018651)
 57:   1155.11   0.027470  138.82  0.007421  (-0.068251  0.041187  0.032657)
 58:   1196.88   0.000923    4.67  0.000241  ( 0.012064  0.008182  0.005319)
 59:   1198.70   0.016832   85.06  0.004382  (-0.064948  0.010662  0.007075)
 60:   1294.39   0.088591  447.70  0.021358  ( 0.129030 -0.031421 -0.061011)
 61:   1303.54   0.033436  168.97  0.008004  ( 0.082689 -0.033554  0.006409)
 62:   1315.20   0.005730   28.96  0.001360  ( 0.034095  0.009004  0.010775)
 63:   1330.47   0.024784  125.25  0.005813  ( 0.006792 -0.072963  0.021056)
 64:   1335.01   0.031617  159.78  0.007391  ( 0.052261 -0.065517  0.019154)
 65:   1344.80   0.003933   19.88  0.000913  (-0.005276 -0.023626  0.018073)
 66:   1440.52   0.009359   47.29  0.002027  ( 0.031388 -0.016983 -0.027455)
 67:   1450.55   0.007957   40.21  0.001712  (-0.030116  0.019158 -0.020926)
 68:   1480.78   0.002077   10.50  0.000438  (-0.008310 -0.015044  0.011934)
 69:   1503.07   0.026417  133.50  0.005485  ( 0.061496 -0.028619  0.029727)
 70:   1533.25   0.008985   45.41  0.001829  ( 0.040068  0.000598  0.014929)
 71:   1542.22   0.014261   72.07  0.002886  ( 0.046628 -0.019184  0.018536)
 72:   1598.71   0.225462  1139.39  0.044010  ( 0.203311 -0.006949  0.051245)
 73:   1647.69   0.000296    1.50  0.000056  (-0.007143  0.001186  0.001916)
 74:   1660.50   0.030647  154.88  0.005760  ( 0.073774 -0.015642  0.008502)
 75:   1680.82   0.036987  186.92  0.006867  (-0.060722  0.027844 -0.049037)
 76:   1803.82   0.095093  480.56  0.016451  (-0.053696 -0.041021 -0.109019)
 77:   3181.07   0.003737   18.88  0.000367  (-0.018383 -0.005329 -0.000495)
 78:   3183.40   0.004614   23.32  0.000452  ( 0.004920 -0.018870  0.008487)
 79:   3207.11   0.004366   22.07  0.000425  (-0.004706 -0.018930  0.006662)
 80:   3213.33   0.002416   12.21  0.000235  (-0.002196  0.013548 -0.006804)
 81:   3221.94   0.001574    7.95  0.000152  ( 0.011847  0.002961  0.001830)
 82:   3226.69   0.000076    0.39  0.000007  (-0.002684  0.000392  0.000182)
 83:   3231.68   0.000023    0.12  0.000002  ( 0.000531 -0.000196  0.001394)
 84:   3240.02   0.000091    0.46  0.000009  (-0.001564 -0.001051 -0.002285)
 85:   3245.44   0.000112    0.57  0.000011  (-0.001908  0.001556  0.002173)
 86:   3477.18   0.007011   35.43  0.000629  ( 0.017393 -0.000078  0.018075)

* The epsilon (eps) is given for a Dirac delta lineshape.
** The dipole moment derivative (T) already includes vibrational overlap.

The first frequency considered to be a vibration is 6
The total number of vibrations considered is 81


--------------------------
THERMOCHEMISTRY AT 298.15K
--------------------------

Temperature         ...   298.15 K
Pressure            ...     1.00 atm
Total Mass          ...   320.14 AMU
Quasi RRHO          ...     True
Cut-Off Frequency   ...     1.00 cm^-1

Throughout the following assumptions are being made:
  (1) The electronic state is orbitally nondegenerate
      but the spin degeneracy is treated
  (2) There are no thermally accessible electronically excited states
  (3) Hindered rotations indicated by low frequency modes are not
      treated as such but are treated as vibrations and this may
      cause some error
  (4) All equations used are the standard statistical mechanics
      equations for an ideal gas
  (5) All vibrations are strictly harmonic

freq.      21.38  E(vib)   ...       0.56 
freq.      26.49  E(vib)   ...       0.56 
freq.      50.64  E(vib)   ...       0.52 
freq.      69.38  E(vib)   ...       0.50 
freq.      92.43  E(vib)   ...       0.47 
freq.     103.36  E(vib)   ...       0.46 
freq.     126.98  E(vib)   ...       0.43 
freq.     150.07  E(vib)   ...       0.40 
freq.     173.16  E(vib)   ...       0.38 
freq.     227.44  E(vib)   ...       0.33 
freq.     257.15  E(vib)   ...       0.30 
freq.     264.26  E(vib)   ...       0.29 
freq.     320.07  E(vib)   ...       0.25 
freq.     348.40  E(vib)   ...       0.23 
freq.     367.25  E(vib)   ...       0.22 
freq.     394.13  E(vib)   ...       0.20 
freq.     420.76  E(vib)   ...       0.18 
freq.     438.40  E(vib)   ...       0.17 
freq.     456.76  E(vib)   ...       0.16 
freq.     483.14  E(vib)   ...       0.15 
freq.     499.31  E(vib)   ...       0.14 
freq.     518.33  E(vib)   ...       0.13 
freq.     582.16  E(vib)   ...       0.11 
freq.     626.24  E(vib)   ...       0.09 
freq.     639.49  E(vib)   ...       0.09 
freq.     665.43  E(vib)   ...       0.08 
freq.     683.14  E(vib)   ...       0.08 
freq.     709.47  E(vib)   ...       0.07 
freq.     715.39  E(vib)   ...       0.07 
freq.     734.40  E(vib)   ...       0.06 
freq.     766.99  E(vib)   ...       0.06 
freq.     780.73  E(vib)   ...       0.05 
freq.     804.95  E(vib)   ...       0.05 
freq.     830.15  E(vib)   ...       0.04 
freq.     866.04  E(vib)   ...       0.04 
freq.     879.88  E(vib)   ...       0.04 
freq.     890.93  E(vib)   ...       0.04 
freq.     904.92  E(vib)   ...       0.03 
freq.     981.03  E(vib)   ...       0.02 
freq.     982.74  E(vib)   ...       0.02 
freq.     990.55  E(vib)   ...       0.02 
freq.    1007.01  E(vib)   ...       0.02 
freq.    1009.09  E(vib)   ...       0.02 
freq.    1019.53  E(vib)   ...       0.02 
freq.    1025.84  E(vib)   ...       0.02 
freq.    1027.51  E(vib)   ...       0.02 
freq.    1075.55  E(vib)   ...       0.02 
freq.    1101.67  E(vib)   ...       0.02 
freq.    1104.71  E(vib)   ...       0.02 
freq.    1133.62  E(vib)   ...       0.01 
freq.    1146.43  E(vib)   ...       0.01 
freq.    1155.11  E(vib)   ...       0.01 
freq.    1196.88  E(vib)   ...       0.01 
freq.    1198.70  E(vib)   ...       0.01 
freq.    1294.39  E(vib)   ...       0.01 
freq.    1303.54  E(vib)   ...       0.01 
freq.    1315.20  E(vib)   ...       0.01 
freq.    1330.47  E(vib)   ...       0.01 
freq.    1335.01  E(vib)   ...       0.01 
freq.    1344.80  E(vib)   ...       0.01 
freq.    1440.52  E(vib)   ...       0.00 
freq.    1450.55  E(vib)   ...       0.00 
freq.    1480.78  E(vib)   ...       0.00 
freq.    1503.07  E(vib)   ...       0.00 
freq.    1533.25  E(vib)   ...       0.00 
freq.    1542.22  E(vib)   ...       0.00 
freq.    1598.71  E(vib)   ...       0.00 
freq.    1647.69  E(vib)   ...       0.00 
freq.    1660.50  E(vib)   ...       0.00 
freq.    1680.82  E(vib)   ...       0.00 
freq.    1803.82  E(vib)   ...       0.00 
freq.    3181.07  E(vib)   ...       0.00 
freq.    3183.40  E(vib)   ...       0.00 
freq.    3207.11  E(vib)   ...       0.00 
freq.    3213.33  E(vib)   ...       0.00 
freq.    3221.94  E(vib)   ...       0.00 
freq.    3226.69  E(vib)   ...       0.00 
freq.    3231.68  E(vib)   ...       0.00 
freq.    3240.02  E(vib)   ...       0.00 
freq.    3245.44  E(vib)   ...       0.00 
freq.    3477.18  E(vib)   ...       0.00 

------------
INNER ENERGY
------------

The inner energy is: U= E(el) + E(ZPE) + E(vib) + E(rot) + E(trans)
    E(el)   - is the total energy from the electronic structure calculation
              = E(kin-el) + E(nuc-el) + E(el-el) + E(nuc-nuc)
    E(ZPE)  - the the zero temperature vibrational energy from the frequency calculation
    E(vib)  - the the finite temperature correction to E(ZPE) due to population
              of excited vibrational states
    E(rot)  - is the rotational thermal energy
    E(trans)- is the translational thermal energy

Summary of contributions to the inner energy U:
Electronic energy                ...  -3394.19411367 Eh
Zero point energy                ...      0.21127445 Eh     132.58 kcal/mol
Thermal vibrational correction   ...      0.01332542 Eh       8.36 kcal/mol
Thermal rotational correction    ...      0.00141627 Eh       0.89 kcal/mol
Thermal translational correction ...      0.00141627 Eh       0.89 kcal/mol
-----------------------------------------------------------------------
Total thermal energy                  -3393.96668126 Eh


Summary of corrections to the electronic energy:
(perhaps to be used in another calculation)
Total thermal correction                  0.01615796 Eh      10.14 kcal/mol
Non-thermal (ZPE) correction              0.21127445 Eh     132.58 kcal/mol
-----------------------------------------------------------------------
Total correction                          0.22743241 Eh     142.72 kcal/mol


--------
ENTHALPY
--------

The enthalpy is H = U + kB*T
                kB is Boltzmann's constant
Total thermal energy              ...  -3393.96668126 Eh 
Thermal Enthalpy correction       ...      0.00094421 Eh       0.59 kcal/mol
-----------------------------------------------------------------------
Total Enthalpy                    ...  -3393.96573705 Eh


Note: Only C1 symmetry has been detected, increase convergence thresholds 
      if your molecule has a higher symmetry. Symmetry factor of 1.0 is   
      used for the rotational entropy correction. 
 

Note: Rotational entropy computed according to Herzberg 
Infrared and Raman Spectra, Chapter V,1, Van Nostrand Reinhold, 1945 
Point Group:  C1, Symmetry Number:   1  
Rotational constants in cm-1:     0.046387     0.002787     0.002764 

Vibrational entropy computed according to the QRRHO of S. Grimme
Chem.Eur.J. 2012 18 9955 using a reference frequency of 100.0 cm-1


-------
ENTROPY
-------

The entropy contributions are T*S = T*(S(el)+S(vib)+S(rot)+S(trans))
     S(el)   - electronic entropy
     S(vib)  - vibrational entropy
     S(rot)  - rotational entropy
     S(trans)- translational entropy
The entropies will be listed as multiplied by the temperature to get
units of energy

Electronic entropy                ...      0.00065446 Eh      0.41 kcal/mol
Vibrational entropy               ...      0.02365432 Eh     14.84 kcal/mol
Rotational entropy                ...      0.01651865 Eh     10.37 kcal/mol
Translational entropy             ...      0.02051919 Eh     12.88 kcal/mol
-----------------------------------------------------------------------
Final entropy term                ...      0.06134662 Eh     38.50 kcal/mol

In case the symmetry of your molecule has not been determined correctly
or in case you have a reason to use a different symmetry number we print 
out the resulting rotational entropy values for sn=1,12:

 non-linear molecules -----------------------------------
|  sn= 1 | S(rot)=       0.01651865 Eh     10.37 kcal/mol|
|  sn= 2 | S(rot)=       0.01586419 Eh      9.95 kcal/mol|
|  sn= 3 | S(rot)=       0.01548136 Eh      9.71 kcal/mol|
|  sn= 4 | S(rot)=       0.01520974 Eh      9.54 kcal/mol|
|  sn= 5 | S(rot)=       0.01499905 Eh      9.41 kcal/mol|
|  sn= 6 | S(rot)=       0.01482690 Eh      9.30 kcal/mol|
|  sn= 7 | S(rot)=       0.01468136 Eh      9.21 kcal/mol|
|  sn= 8 | S(rot)=       0.01455528 Eh      9.13 kcal/mol|
|  sn= 9 | S(rot)=       0.01444407 Eh      9.06 kcal/mol|
|  sn=10 | S(rot)=       0.01434459 Eh      9.00 kcal/mol|
|  sn=11 | S(rot)=       0.01425460 Eh      8.94 kcal/mol|
|  sn=12 | S(rot)=       0.01417245 Eh      8.89 kcal/mol|
 linear molecules ---------------------------------------
|  Dinfh | S(rot)=       0.01088789 Eh      6.83 kcal/mol|
|  Cinfv | S(rot)=       0.01154235 Eh      7.24 kcal/mol|
 --------------------------------------------------------


-------------------
GIBBS FREE ENERGY
-------------------

The Gibbs free energy is G = H - T*S

Total enthalpy                    ...  -3393.96573705 Eh 
Total entropy correction          ...     -0.06134662 Eh    -38.50 kcal/mol
-----------------------------------------------------------------------
Final Gibbs free energy         ...  -3394.02708367 Eh

For completeness - the Gibbs free energy minus the electronic energy
G-E(el)                           ...      0.16703000 Eh    104.81 kcal/mol


Maximum memory used throughout the entire PROP-calculation: 546.4 MB

--------------------------------
SUGGESTED CITATIONS FOR THIS RUN
--------------------------------

Below you find a list of papers that are relevant to this ORCA run
We neither can nor want to force you to cite these papers, but we appreciate if you do
You receive ORCA, which is the product of decades of hard work by many enthusiastic individuals, for free
The only thing we kindly ask in return is that you cite our papers,
We deeply appreciate it, if you show your appreciation for ORCA by not just citing the generic ORCA reference.

Please note that relegating all ORCA citations to the supporting information does *not* help us.
SI sections are not indexed - citations you put there will not count into any citation statistics
But we need these citations in order to attract the funding resources that allow us to do what we are doing

Therefore, if you are a happy ORCA user, please consider citing a few of the papers listed below in the main body of your paper

In addition to the list printed below, the program has created the file molecule_anion_opt_freq.bibtex that contains the list in bibtex format
You can import this file easily into all common literature databanks and citation aid programs


List of essential papers. We consider these as the minimum necessary citations

  1. Neese,F.
     Software update: the ORCA program system, version 5.0
     WIRES Comput. Molec. Sci., 2022 12(1)e1606
     doi.org/10.1002/wcms.1606

List of papers to cite with high priority. The work reported in these papers was absolutely
necessary for this run to complete.
Our perspective: the developers of density functionals and basis sets usually get cited in chemistry papers
Good! But without the algorithms to do something with them, the functionals or basis sets would not do anything.
Hence, in our opinion, the algorithm design and method developments papers are equally worthy of getting cited

  1. Neese,F.
     An improvement of the resolution of the identity approximation for the formation of the Coulomb matrix
     J. Comp. Chem., 2003 24(14)1740-1747
     doi.org/10.1002/jcc.10318
  2. Neese,F.; Wennmohs,F.; Hansen,A.; Becker,U.
     Efficient, approximate and parallel Hartree-Fock and hybrid DFT calculations. A 'chain-of-spheres' algorithm for the Hartree-Fock exchange
     Chem. Phys., 2009 356(1-3)98-109
     doi.org/10.1016/j.chemphys.2008.10.036
  3. Bykov,D.; Petrenko,T.; Izsak,R.; Kossmann,S.; Becker,U.; Valeev,E.; Neese,F.
     Efficient implementation of the analytic second derivatives of Hartree-Fock and hybrid DFT energies: a detailed analysis of different approximations
     Molec. Phys., 2015 113 1961-1977
     doi.org/10.1080/00268976.2015.1025114
  4. Garcia-Rates,M.; Neese,F.
     Efficient implementation of the analytical second derivatives of hartree-fock and hybrid DFT energies within the framework of the conductor-like polarizable continuum model
     J. Comput. Chem., 2019 40 1816-1828
     doi.org/10.1002/jcc.25833
  5. Garcia-Rates,M.; Neese,F.
     Effect of the Solute Cavity on the Solvation Energy and its Derivatives within the Framework of the Gaussian Charge Scheme
     J. Comput. Chem., 2020 41 922-939
     doi.org/10.1002/jcc.26139
  6. Helmich-Paris,B.; de Souza,B.; Neese,F.; Izsák,R.
     An improved chain of spheres for exchange algorithm
     J. Chem. Phys., 2021 155 104109
     doi.org/doi: 10.1063/5.0058766.
  7. Neese,F.
     The SHARK Integral Generation and Digestion System
     J. Comp. Chem., 2022  1-16
     doi.org/10.1002/jcc.26942

List of suggested additional citations. These are papers that are important in the 'surrounding' of 
of this run, or papers that preceded the highly important papers. If you like your results we are grateful for a citation.

  1. Izsak,R.; Neese,F.
     An overlap fitted chain of spheres exchange method
     J. Chem. Phys., 2011 135 144105
     doi.org/10.1063/1.3646921
  2. Izsak,R.; Hansen,A.; Neese,F.
     The resolution of identity and chain of spheres approximations for the LPNO-CCSD singles Fock term
     Molec. Phys., 2012 110 2413-2417
     doi.org/10.1080/00268976.2012.687466
  3. Neese,F.
     The ORCA program system
     WIRES Comput. Molec. Sci., 2012 2(1)73-78
     doi.org/10.1002/wcms.81
  4. Izsak,R.; Neese,F.; Klopper,W.
     Robust fitting techniques in the chain of spheres approximation to the Fock exchange: The role of the complementary space
     J. Chem. Phys., 2013 139 
     doi.org/10.1063/1.4819264
  5. Neese,F.
     Software update: the ORCA program system, version 4.0
     WIRES Comput. Molec. Sci., 2018 8(1)1-6
     doi.org/10.1002/wcms.1327
  6. Neese,F.; Wennmohs,F.; Becker,U.; Riplinger,C.
     The ORCA quantum chemistry program package
     J. Chem. Phys., 2020 152 Art. No. L224108
     doi.org/10.1063/5.0004608

List of optional additional citations

  1. Neese,F.
     Approximate second-order SCF convergence for spin unrestricted wavefunctions
     Chem. Phys. Lett., 2000 325(1-3)93-98
     doi.org/10.1016/s0009-2614(00)00662-x

Timings for individual modules:

Sum of individual times          ...     6444.875 sec (= 107.415 min)
Startup calculation              ...       74.591 sec (=   1.243 min)   1.2 %
SCF iterations                   ...     1736.890 sec (=  28.948 min)  26.9 %
Property integrals               ...     1044.994 sec (=  17.417 min)  16.2 %
SCF Response                     ...     2353.604 sec (=  39.227 min)  36.5 %
Property calculations            ...      629.486 sec (=  10.491 min)   9.8 %
SCF Gradient evaluation          ...      604.883 sec (=  10.081 min)   9.4 %
Geometry relaxation              ...        0.427 sec (=   0.007 min)   0.0 %
                             ****ORCA TERMINATED NORMALLY****
TOTAL RUN TIME: 0 days 1 hours 47 minutes 30 seconds 368 msec
